# vtk DataFile Version 4.2
vtk output
ASCII
DATASET POLYDATA
POINTS 642 double
-97.2344 191.201 76.1189
104.967 193.31 74.5023
-84.7283 -193.045 -3.45646
98.2271 -199.927 -6.13868
2.80893 -127.716 259.889
0.0387266 164.201 226.426
-0.516963 -129.714 -259.92
-2.94621 121.347 -258.833
174.965 -0.422167 -191.27
187.944 5.11603 178.372
-163.862 -2.9455 -189.616
-184.635 30.1218 180.039
-169.192 131.073 133.935
-138.75 85.6662 236.741
-77.9084 230.195 152.783
82.9419 229.921 153.644
0.589103 224.884 72.9636
81.6036 140.846 -181.444
-66.3519 142.412 -179.572
-128.58 75.8267 -255.006
-139.558 87.4949 -129.081
-159.092 -6.78451 27.6438
139.934 92.384 235.78
179.713 134.807 133.951
-121.473 -72.1061 241.16
0.435175 -21.7703 289.483
-141.995 -93.4634 -129.637
-144.13 -101.223 98.8883
-1.60978 1.58157 -310.234
-133.526 -83.7058 -255.714
150.575 93.935 -140.582
140.949 82.8404 -258.748
158.732 -104.041 97.8987
132.602 -71.6234 246.96
66.0492 -181.831 136.638
-58.748 -178.435 136.277
3.68406 -247.464 -7.27856
-50.607 -179.691 -150.743
65.002 -187.63 -132.312
141.25 -83.1229 -258.487
137.88 -91.7116 -120.614
173.299 -3.81222 27.4606
-136.858 167.864 104.397
-139.193 184.075 140.83
-92.4504 218.33 120.065
-182.854 49.4841 203.607
-173.399 114.789 175.766
-186.326 70.6362 166.897
-42.7259 206.174 203.414
-112.677 168.172 200.562
-81.7148 125.789 240.358
-37.6337 243.623 120.387
-52.6249 217.814 77.4887
45.0328 205.558 203.382
-0.102875 243.214 159.979
58.8602 216.597 74.7344
39.0708 242.957 119.915
100.877 219.185 117.872
-9.47342 160.043 -39.9372
-69.6527 113.709 -62.839
69.1592 120.004 -71.799
15.0489 162.948 -38.4726
-48.943 139.84 -219.639
-2.46003 147.056 -171.283
57.0628 139.103 -219.592
-114.672 116.054 -160.211
-140.428 146.886 -16.089
-73.3884 107.13 -269.938
-99.0816 125.747 -218.485
-162.747 47.387 -154.816
-142.262 84.9021 -199.394
-160.529 34.1148 -223.2
-147.98 117.294 66.3917
-167.784 -3.08468 -117.564
-167.835 60.2404 -75.9492
-173.097 74.1912 99.5728
-179.751 20.6564 122.74
148.985 186.573 140.907
147.425 171.272 102.185
86.7545 127.536 239.845
120.855 170.063 203.782
188.193 89.0995 149.081
180.008 125.363 176.839
179.754 44.6343 207.022
-83.6817 36.07 267.789
-0.133481 68.7867 261.107
-166.658 -26.8343 207.317
-140.249 2.31585 250.268
2.82297 -79.8261 293.972
-72.9945 -48.4894 282.584
-63.0597 -107.152 258.497
-161.171 -42.417 78.2121
-167.913 -36.0936 155.333
-162.299 -56.5147 -167.721
-151.805 -36.9081 -78.4608
-120.094 -154.049 45.5809
-140.057 -117.725 5.58249
-115.715 -155.115 -38.9952
-140.852 -1.58243 -271.239
-161.968 -42.7285 -223.371
-4.08716 72.3122 -300.122
-79.2918 45.3569 -303.821
-77.6048 -114.983 -270.716
-81.4508 -45.2304 -300.669
-1.48432 -75.8989 -296.95
112.83 131.201 -221.376
85.0259 109.134 -268.246
143.91 138.867 -17.9451
127.528 120.698 -169.245
173.865 47.4477 -223.57
159.471 91.8148 -203.911
172.447 56.4298 -169.548
131.814 -161.02 39.6522
119.856 -151.619 120.217
87.6816 -197.238 62.5156
175.079 -31.6681 214.222
153.939 -81.912 188.832
178.832 -40.1556 154.837
33.6705 -154.309 208.934
99.4174 -127.375 208.819
66.6055 -106.707 260.195
30.2912 -221.29 50.9062
48.0706 -234.036 -9.39091
-30.3056 -151.72 209.327
3.26678 -192.118 145.591
-36.5557 -231.23 -7.65264
-22.6913 -218.679 50.8701
-78.453 -192.3 64.0918
32.1933 -235.262 -68.2062
80.6855 -210.656 -65.5864
-68.2012 -203.15 -67.1165
-21.8282 -232.678 -68.2535
48.9586 -148.787 -225.394
1.94293 -209.991 -123.978
-56.9865 -150.677 -222.446
106.363 -143.239 -143.645
127.333 -165.611 -36.3768
79.6935 -111.846 -269.146
113.498 -134.28 -220.938
171.835 -52.6003 -180.227
159.648 -89.9467 -211.219
173.985 -48.6222 -223.315
152.225 -127.393 3.3543
178.897 0.554431 -121.439
167.078 -37.9661 -67.7256
176.987 -52.9238 73.7954
190.534 12.5621 112.816
80.3891 -47.4987 284.515
144.956 -6.62619 257.084
88.3442 31.733 269.851
-111.087 -145.245 121.3
-92.7305 -125.094 207.996
-144.573 -80.7982 184.451
-105.806 -135.959 -222.445
-114.463 -124.439 -154.44
-149.1 -92.3452 -202.679
146.161 0.0077382 -267.613
84.0984 -48.8882 -298.755
83.6557 49.0274 -298.691
183.865 75.903 96.3015
177.503 60.6583 -75.516
157.177 123.477 63.475
-116.521 181.6 86.9765
-117.606 194.946 114.599
-95.5253 206.109 96.651
-158.909 155.817 137.72
-140.065 176.861 132.077
-156.003 150.01 124.989
-87.6963 226.634 133.805
-116.118 203.869 133.369
-111.927 210.832 145.795
-189.132 37.7678 186.605
-192.037 59.8831 178.93
-189.829 51.3668 175.527
-158.435 101.051 208.945
-180.754 79.3994 193.308
-162.797 66.6503 223.451
-177.244 105.749 146.868
-183.334 91.0538 165.462
-174.935 126.823 148.63
-22.176 187.367 219.402
-61.7176 171.156 221.095
-42.1629 147.095 232.086
-95.2943 203.965 177.438
-79.3652 190.435 202.458
-60.7362 220.653 180.639
-111.447 105.808 242.432
-98.2725 148.78 223.893
-128.039 127.457 221.346
-160.417 155.201 155.18
-146.602 142.893 190.631
-130.824 182.222 166.777
-71.7827 222.188 98.6981
-76.6725 206.246 77.0601
-56.8176 242.456 133.231
-64.0073 234.629 121.472
-27.6904 223.539 75.7859
-45.0246 233.25 100.725
-19.5945 237.097 99.8711
23.1205 187.219 219.447
-0.0306254 209.246 204.227
42.7879 240.665 158.899
22.9051 228.356 183.842
64.6198 220.021 180.863
-22.4845 228.391 183.851
-41.4684 241.198 158.618
84.6932 205.667 73.6411
79.7254 221.867 97.4195
104.498 207.191 95.5886
19.4399 237.238 98.974
48.908 232.272 99.5831
29.6261 223.183 73.4127
94.7081 227.55 132.509
70.5548 233.928 119.778
60.3512 241.475 132.776
-22.0661 250.608 135.31
21.8138 250.229 135.443
-0.531669 245.369 121.43
-62.3649 195.362 52.4762
-86.1651 180.577 50.8691
-11.171 205.096 42.1496
-33.5518 203.68 48.7911
-68.3952 138.903 -165.272
-20.1464 153.485 -57.6263
-43.2256 147.351 -147.67
87.7883 183.358 44.781
72.9668 192.029 46.2179
54.7719 148.33 -144.094
41.7537 145.862 -52.5304
83.7709 141.081 -158.958
38.4369 203.677 45.983
14.8349 205.312 40.5538
-27.9217 134.676 -239.067
-1.01945 139.395 -220.339
28.0825 134.982 -237.541
-44.4564 146.746 -173.592
-29.0822 141.78 -199.356
-61.6284 141.541 -199.18
74.5919 139.597 -204.251
29.3527 140.492 -201.676
51.1019 143.663 -175.202
4.44864 162.947 -36.1241
21.0994 151.949 -127.483
-20.675 149.496 -130.187
-140.558 132.296 -33.8842
-115.336 158.894 49.6388
-91.55 131.469 -177.926
-106.732 118.896 -150.949
-133.939 124.484 -92.4337
-131.715 118.917 -111.502
-127.176 110.097 -135.228
-41.767 115.188 -266.066
-62.27 131.258 -243.948
-116.12 105.798 -238.615
-90.2966 121.213 -244.149
-101.687 93.5056 -266.239
-74.9411 136.95 -220.303
-82.6293 136.361 -199.691
-164.501 27.0313 -174.209
-160.174 43.5523 -196.999
-162.752 15.2802 -209.638
-141.959 85.9203 -166.203
-152.683 65.9533 -182.825
-156.927 62.6642 -139.963
-149.551 55.6932 -239.127
-152.556 62.9584 -212.721
-140.714 82.6783 -225.39
-107.349 123.683 -192.054
-124.404 107.226 -209.719
-126.775 106.504 -180.229
-130.956 150.224 58.5151
-113.782 107.158 -40.8629
-134.448 149.575 22.0667
-144.247 144.571 86.4507
-161.432 127.113 108.448
-167.782 -2.19744 -145.914
-168.962 28.674 -130.552
-150.555 45.4101 -36.2995
-163.894 33.3907 -110.968
-172.888 -22.8706 -81.1289
-165.438 49.2648 -112.459
-166.772 55.7256 -98.4961
-184.764 52.4214 161.085
-182.709 32.2204 163.712
-172.879 105.809 122.209
-180.105 76.536 141.223
-174.862 11.5977 87.2427
-179.021 45.4213 114.725
-170.593 39.147 75.5757
-169.18 78.5037 -0.529931
-168.998 83.4177 31.8604
-163.571 94.37 80.1893
127.189 197.232 112.211
126.727 184.087 86.8632
119.368 211.762 146.742
124.937 206.189 130.267
165.836 154.416 120.61
150.034 179.975 127.368
169.311 159.397 137.018
44.6621 147.234 231.881
66.8732 170.784 221.518
133.652 133.844 223
105.155 151.063 225.707
114.793 111.489 242.803
86.0787 189.915 203.994
102.435 203.719 179.652
187.452 42.4437 166.41
186.622 68.2411 177.105
186.726 20.7568 190.482
185.229 133.173 148.824
187.896 108.192 160.797
186.804 115.393 140.956
162.794 69.3705 222.843
180.466 91.2558 192.577
162.47 111.354 208.869
139.408 183.336 170.726
154.802 148.702 193.762
169.852 158.739 158.866
-49.5225 101.082 250.346
-0.039556 120.338 243.606
-115.409 67.4991 256.788
-88.488 82.97 255.496
-0.306228 18.7374 279.319
-47.7669 48.4106 265.912
-42.877 4.88733 281.614
-177.823 0.128063 189.343
-175.466 12.02 205.749
-132.564 -36.4269 248.821
-156 -14.4978 231.291
-146.777 -49.0902 224.715
-159.567 29.2353 228.495
-143.437 46.7674 246.237
2.74066 -107.695 279.034
-26.9467 -94.8523 278.523
-23.8005 -119.403 260.712
-34.4017 -36.7382 288.271
-28.4729 -66.0019 288.764
1.95444 -55.2555 298.289
-93.851 -91.6972 252.778
-69.1455 -79.6044 274.475
-99.798 -61.9396 265.856
-113.857 19.5656 264.679
-107.783 -24.2092 270.65
-78.8782 -9.59078 282.831
-177.379 -7.29902 137.125
-176.962 -4.73932 170.395
-162.57 -15.2053 59.4237
-174.996 -10.9617 99.9479
-156.863 -65.9555 131.595
-168.739 -37.9965 114.72
-154.531 -74.992 88.5546
-164.441 -36.8288 -177.265
-168.662 -29.4984 -136.461
-145.678 -77.0339 -109.72
-163.355 -45.0091 -135.491
-154.968 -73.181 -157.577
-166.145 -19.3793 -107.238
-162.825 -22.9505 -33.0107
-105.4 -171.886 22.2419
-119.701 -155.221 3.73818
-101.296 -176.069 -19.662
-142.211 -113.043 53.5321
-132.099 -135.162 27.6435
-133.212 -130.773 68.3989
-128.953 -121.997 -79.8704
-131.155 -135.674 -17.5214
-137.59 -108.806 -52.8065
-157.98 -51.201 9.89325
-146.9 -88.7614 -26.2141
-148.454 -86.8883 37.0105
-162.886 -2.99601 -227.845
-162.6 -23.1928 -210.091
-136.619 38.4941 -265.926
-154.58 17.0147 -246.537
-154.349 -63.5566 -239.268
-156.133 -22.1206 -246.507
-138.361 -42.3079 -265.075
-3.79453 99.9031 -281.399
-44.1648 90.1887 -289.168
-46.966 25.5599 -310.411
-45.4449 60.1901 -305.353
-2.814 41.6203 -309.91
-77.707 78.2701 -290.803
-106.305 62.8431 -283.442
-44.0765 -123.322 -266.454
-46.4777 -96.8505 -287.091
-0.817767 -107.301 -280.307
-109.752 -67.6048 -282.962
-81.4962 -84.4412 -289.39
-106.281 -101.163 -267.222
-1.5823 -39.5005 -308.139
-46.4427 -60.8244 -301.395
-47.1347 -22.3321 -310.29
-112.52 20.774 -291.04
-82.8195 0.722888 -308.042
[...]
POINT_DATA 642
SCALARS Mean_Curvature double 1
LOOKUP_TABLE default
0.00658031
0.00616113
0.0068136
0.00908147
0.0261074
-0.00185138
0.00764347
0.00743397
-0.00206439
0.010445
-0.000295529
-0.0111925
0.011367
0.0113229
0.0202759
0.0181348
0.0076785
0.0104601
0.0239678
0.0141356
-0.0112322
-0.00187731
0.00926165
0.00841867
0.0120008
0.004745
0.0105005
0.00512006
0.00134376
0.0150673
-0.0113401
0.0161539
0.00764531
0.0142318
0.00796822
0.00797125
0.0441586
0.00800015
0.018351
0.014771
-0.00294793
-0.00319767
0.00769775
0.04095
0.00722624
0.0219322
0.0147493
-0.000407954
0.0130349
0.0087526
0.00915534
0.0132564
0.00897123
0.0109038
0.0105813
0.00676749
0.0103146
0.0094383
0.00588953
-0.0178776
-0.0188123
0.0182842
0.012255
0.00366884
0.0117598
0.0225743
-0.128157
0.0152173
0.0156956
0.0114706
0.00951541
0.0204679
-0.0122707
0.00591004
0.0559691
0.00691231
0.00555033
0.0282164
0.00947719
0.00591833
0.0108507
0.00159327
0.0185659
0.0138886
0.00319663
0.00073315
0.0204818
0.0138491
0.0248764
0.0144983
0.0127208
-0.000250481
0.00319937
0.0133643
-0.0136961
0.00859138
0.00705905
0.005098
0.0167469
0.0169215
0.0101822
0.0161161
0.0159611
0.00965617
0.0060167
0.0253872
0.0127724
0.090846
0.0099861
0.0242209
0.0170773
0.00858219
0.00818154
0.00740543
0.0097896
0.0215191
0.00672009
0.00249471
0.00426729
0.00720452
0.00942968
0.00251143
0.0170446
0.00362061
0.0139947
0.0180712
-0.000205755
0.0112575
0.0185825
0.0144592
0.0101612
0.0185896
0.0101687
0.00862865
0.00656993
0.00237581
0.00821722
0.00902716
0.0263244
0.0108388
0.0225509
0.0246474
0.0104156
0.0107222
0.00310603
0.00697474
0.0130992
0.0125484
0.013352
0.00184844
0.00703717
0.00820763
0.00996726
0.0270134
0.00604277
0.0146377
0.00680432
0.0109353
0.00993374
0.00489416
0.102194
-0.0124151
0.00748732
0.00706635
0.0116543
0.031649
-0.0041621
0.000792191
0.0283804
0.00922761
0.03011
0.0535297
0.0588623
0.017194
0.0076819
0.0160634
0.0133297
-0.00187726
0.030589
0.0365212
0.0142476
0.00947513
-7.78459e-05
0.00987227
0.0111112
0.0109398
0.0124644
0.0106243
0.011096
0.0230865
0.00861113
0.0115306
0.0129155
0.00899843
0.0342318
0.00577176
0.0086715
0.0107298
0.00851142
0.0138828
0.00859729
0.0165239
0.0124486
0.00917081
0.0126274
0.0177367
0.00940352
0.0118903
0.0109247
0.00951299
0.00692989
0.00839096
0.0285598
0.00838943
0.0278677
0.0357486
0.0342576
0.000877987
0.00271148
0.00122103
0.00659903
0.00406653
0.00235171
0.00249507
0.0254379
0.00219516
0.0037289
0.0141504
-0.00135993
0.0122118
0.00255568
0.00875364
0.0147967
0.00863297
0.0154271
0.0113442
-0.00354868
0.00879635
0.000797742
-0.00373883
-0.000322852
0.000211174
0.00304159
-0.00142262
-0.0271424
-0.0175485
0.0115606
0.000293191
-0.0698616
0.134916
-0.00774624
0.00813057
0.0207325
0.0188106
0.0191799
0.0133698
0.0225003
0.0149091
0.00497165
0.00897259
0.00297811
0.00397527
0.00523436
0.00841315
0.0193862
0.0119383
0.018617
0.0157375
0.0141491
0.0121666
0.0059732
-0.0286038
-0.0347975
0.0137698
0.00566172
0.00219865
0.0190073
-0.0165889
-0.0107283
0.0346757
0.0108185
0.0138581
0.00030112
-0.00299517
0.00821128
0.000614913
0.0112505
0.0060519
-0.00232548
0.0284208
0.0233861
-0.00865506
0.00841475
0.00750876
0.0224654
0.0176645
0.00590404
0.00639533
0.0249505
-0.000682208
0.00801546
0.0136681
0.0125233
0.0158899
0.0108849
0.0099839
-0.000518348
0.0115121
0.0130684
0.0368402
0.0194976
0.0176047
0.00857378
0.0159088
0.0108546
0.0113244
0.0123728
0.0215874
0.00202313
0.00150529
0.0166282
0.00612413
0.00422421
-0.00101742
0.00483624
0.0191667
0.0132201
0.0113157
0.0142608
0.0110703
0.00320272
0.0162335
0.0234567
0.00931539
0.00900645
0.0043716
0.00916799
0.02649
0.0144201
0.0144569
0.0132378
0.00989798
0.0134132
0.0163959
0.00726131
0.00329589
0.00116401
0.0119763
0.00272123
0.00812732
0.00516301
0.00255351
0.0222398
-0.0019928
0.00481949
0.00528329
-0.0202065
-0.00939853
0.00495755
0.00770821
0.00663418
0.0084125
0.00590442
0.00881325
0.00291617
0.0103297
0.0030878
0.00256419
0.00386688
-0.00106615
0.0209627
-0.00189412
0.0119398
0.0131328
0.0223562
0.0158091
0.00732063
0.00793691
0.0111779
0.00632415
0.0140826
0.00976096
0.015865
0.0136202
0.00830459
0.0102901
0.00771508
0.0134931
0.0163147
0.0142008
0.00718354
0.00641865
0.00839726
0.0103493
0.0154602
0.0142271
0.0165496
0.00519932
0.0127373
0.0265606
0.0163791
0.0228834
0.0188875
-0.00671811
-0.0210235
0.00324641
0.0166058
0.0977807
0.000921682
0.00755933
0.000856918
0.0149933
0.00475121
0.0222825
0.0250696
0.0229626
0.0051004
0.0115908
0.00469751
0.0113393
0.0100291
0.0228826
0.00807194
0.0099044
0.00586268
0.00642128
0.0061745
0.00579674
0.00921038
0.007981
0.00805814
0.0219579
0.00640468
0.00701651
0.0121834
0.00948681
0.0183115
0.00678578
0.00704807
0.00381974
0.010872
0.0070091
0.010942
0.00606425
0.0069201
0.00538994
0.0133856
0.0126545
0.0123318
0.00427763
0.00765753
0.00538315
0.00169567
0.0121529
0.00692923
0.00850006
0.0237657
0.0080663
0.0168416
0.00646647
0.0128043
0.00752566
0.00581762
0.0048735
0.00904205
0.0069663
0.0107512
0.00115873
0.00309097
0.0164606
0.00973558
0.0242351
0.00754298
0.010939
0.00853276
0.00545967
0.00577134
0.0149807
0.00708879
0.00704045
0.0132564
0.00453416
0.0106908
0.0165196
0.0136757
0.00440625
0.0038703
0.0142998
0.0126112
0.00547473
0.00342871
0.0167028
0.0160338
0.000229279
0.0145122
0.0109412
-0.00444327
-0.0217174
0.0373754
-0.0163848
0.027921
0.0132146
0.0186597
0.016487
0.00719212
0.00861867
0.00739914
0.00760124
0.00630307
0.00666562
-0.00838028
0.0103765
0.0169327
0.0189259
0.0148015
0.0146971
0.0142734
0.0270722
0.00774131
0.0210065
0.000865459
0.00188834
0.00938408
0.0036379
0.023567
0.0354837
0.0304813
0.009502
0.0315633
0.00487214
0.00936003
0.00729787
0.0125892
0.0111556
0.00369777
0.00198626
0.0226997
0.0202745
0.0529999
-0.0238797
0.0104491
-0.00738298
0.00940234
0.00312976
0.00834577
0.00870576
0.00118962
-0.0023556
0.00980641
0.0017348
0.00165987
-0.00280231
0.0113575
0.0140424
0.0124183
0.014225
0.000763815
0.0225144
0.00547981
0.00990396
0.014184
0.0174336
0.00186618
0.00307858
-0.00140176
0.00487169
0.0146428
0.0200997
0.0136253
0.0173936
0.0123183
0.0068245
0.0065574
0.00703962
0.00695604
0.0120751
0.0122588
0.0137783
0.00650964
0.00478935
0.00880336
0.00388325
0.00426259
0.0139112
0.0124342
0.00538518
0.0107345
0.00501465
0.0187398
0.0103093
0.0366471
0.017439
0.0196648
0.00572831
0.00450739
0.00490606
0.0102153
-0.0205174
0.0135604
0.0230783
0.0186755
0.0133097
0.0071539
0.00543196
0.00791315
0.0221477
0.017227
0.0144906
0.0121076
0.0122326
0.0147844
0.0118633
0.0094778
0.00412825
0.0122524
0.0198172
0.0060183
0.0198048
0.0163932
0.00779707
0.0102035
0.00968347
0.00594743
0.00978536
0.00211332
0.000424414
0.0106801
0.0160787
0.00232114
0.015274
0.0127856
-0.0217423
0.000697926
-0.0127702
-0.020301
0.00636739
0.0149972
0.0519208
-0.0302383
-0.0121654
0.0258932
0.0100345
SCALARS CoVolArea double 1
LOOKUP_TABLE default
681.732
742.019
815.766
716.139
607.286
1355.08
1039.75
1125.75
1008.82
528.886
906.341
351.149
516.04
1230.17
999.787
1105.22
995.691
686.21
491.341
1118.69
2007.83
2927.93
1415.14
515.527
1097.35
1634.04
1291.93
1328.24
1974.36
1177.65
2083.24
1065.03
1330.98
1034.4
1368.21
1377.2
396.882
1615.62
1458.95
1085.15
2635.31
3122.26
983.536
642.923
652.972
897.526
1184.36
404.167
1205.11
1472.46
1469.26
587.924
793.642
1302.4
1174.55
945.243
670.654
648.344
1493.83
6432.44
4191.56
2179.12
782.05
1741.31
860.711
590.951
751.873
1061.04
742.081
838.57
758.415
737.492
2795.86
813.058
1020.48
1490.08
1074.17
790.811
891.711
1503.16
1384.88
897.023
1052.33
1226.35
1646.4
2696.81
856.666
1280.47
893.523
1318.7
1133.04
1728.05
1065.07
664.523
2459.46
941.745
1357.21
1474.22
1291.34
743.988
1530.31
1356.5
1092.61
1495.57
1745.69
669.342
1157.93
1261.44
713.782
770.856
595.031
752.437
1042.14
1455.07
1175.45
742.175
1176.2
1110.27
1249.84
1259.12
1255.01
1340.05
821.715
1235.88
1241.28
779.649
1320.28
1121.52
855.945
865.622
1066.1
801.77
1627.88
1924.5
1251.27
2006.05
1017.5
1225.12
768.007
537.603
388.67
736.862
1176.28
967.902
2276.28
1515.69
1131.66
1313.13
1230.1
1710
1416.35
1139.02
988.024
687.43
1701.97
565.085
1632.89
1554.32
1534.92
1343.94
909.783
2745.8
931.872
798.993
711.126
459.445
592.633
699.908
551.72
525.929
895.745
449.399
444.29
246.596
1363.13
974.462
1107.36
563.901
603.648
611.014
1256.52
1370.61
1733.17
1340.78
1284.06
1173.41
1193.88
1312.53
1400.98
1080.86
1609.56
1403.15
709.526
723.161
649.466
562.547
826.949
672.453
835.259
1316.8
1225.16
1146.48
1258.68
1269.07
1209.61
1067.67
734.55
767.933
708.902
897.986
794.726
922.104
633.709
623.488
742.048
826.43
871.834
767.829
2952.88
3005.94
1434.62
1657.75
2453
3747.79
1055.79
2657.78
2218.64
1873.09
3400.74
1819.99
2087.22
1399.12
1083.82
1055.01
1224.21
904.602
1097.23
578.989
700.926
1251.89
1357.82
1783.14
2198.71
1856.56
3814.7
1392.36
595.3
2587.83
1498.45
659.183
758.904
1159.63
897.719
964.512
881.641
1057.85
625.401
546.416
1019.74
777.825
747.17
991.37
822.738
905.217
915.432
694.631
846.147
699.043
833.771
841.891
878.363
4661.99
1934.75
1090.15
965.966
1173.38
841.807
4544.04
1623.94
2527.64
501.182
2227.68
747.694
789.483
945.518
984.836
1199.78
1197.76
2904.2
2606.84
2089.75
1261.15
744.602
897.626
1023.72
594.018
696.906
621.877
554.962
1833.27
1439.87
1289.73
1249.59
1195.64
1328.22
1393.58
1060.46
993.285
811.822
577.515
715.461
457.803
1392.43
1140.45
1321.63
1416.85
1433.38
1070.72
2214.75
2383.8
1328.64
1559.57
2222.93
2161.06
1777.11
625.918
970.298
1195.24
1105.88
980.3
1166.72
1260.1
844.924
1127.96
997.086
1394.04
1132.53
1034.41
1001.64
1200.34
1176.43
1519.63
1387.28
1583.59
1191.79
838.642
1592.37
1096.9
1284.95
1258.98
1497.3
1013.5
755.573
2036.49
1151.71
898.56
835.395
1518.1
1013.28
1030.95
1064.39
1238.15
975.543
1050.9
1715.7
1239.03
1594.24
2683.78
2608.91
1999.65
745.914
773.804
1282.96
986.718
950.448
1005.61
1349.19
1475.06
1255.74
1665.81
1311.14
1632.2
1136.24
1291.85
1236.52
1438.61
1488.7
1377.41
1253.08
1090.05
1829.37
1584.85
1778.76
1503.83
1615.8
1544.88
1014.85
1449.06
516.411
579.545
994.415
845.247
973.262
1948.12
4279.77
697.964
1346.53
1024.5
2394
644.995
828.902
587.956
1077.79
837.861
562.808
892.59
919.558
560.402
805.63
647.816
733.278
765.162
961.909
1103.42
1051.84
1470.21
1195.32
1188.83
1155.43
1145.51
1392.96
569.253
748.273
698.078
999.593
822.92
863.296
1239.52
1088.94
1426.03
933.4
1235.7
969.872
1433.78
1277.57
1345.76
1108.66
1129.92
1088.08
1606.87
1358.23
1599.27
1133.64
892.897
1429.35
1288.61
543.59
951.634
691.653
956.08
1095.9
1382.51
1224.09
1359.68
1176.93
1367.27
925.874
1076.17
1066.36
681.25
888.55
494.725
1140.44
1228.88
1377.68
1532.39
1518.69
1301.64
879.384
853.184
723.87
816.191
1135.49
810.293
1000.11
973.954
952.987
1032.98
873.114
1633.65
794.101
677.977
1041.01
2048.21
1096.33
1761.26
2996.3
1916.65
865.989
2540.81
1289.96
896.793
982.192
983.181
995.135
905.532
1579.3
1505.26
1859.34
1807.97
2418.02
1257.49
1038.41
990.72
1009.17
1094.59
1030.01
1101.36
932.963
459.413
789.284
1303.31
366.68
1511.33
886.501
436.241
756.161
1079.22
654.193
1186.89
903.253
1886.23
862.73
954.567
1305.1
1294.79
736.868
1602.61
800.163
2739.95
1303.21
2835.25
1116.76
1040.31
1293.37
1218.32
1292.16
1231.07
1715.98
2540.64
2412.22
1788.21
1100.1
1169.12
1288.62
1123.24
1474.19
931.587
1563.51
1274.05
957.826
1047.61
2322.17
1951.76
2337.18
1655.51
1508.09
1216.17
1483.4
1514.72
999.957
1413.91
1128.32
1093.31
1374.81
1124.9
1024.37
974.721
1153.7
1397.97
750.014
1286.02
912.273
796.62
996.668
1484.04
1192.74
1407.44
934.334
1154.59
621.216
904.423
964.862
1327.9
1414.58
1857.94
1799.34
2389.1
654.916
814.017
598.938
537.594
804.04
1166.83
862.424
692.693
1007.47
1340.25
1251.85
1240.3
1328.09
1531.69
1871.22
1657.82
1276.85
1246.03
1575.52
1218.9
1218.57
1547.64
1825.04
1793.92
1948.62
1798.64
1254.46
2532.74
1061.38
817.781
821.319
968.67
2757.42
606.926
1702.82
4093.82
891.506
1005.52
962.916
1408.45
4823.8
1878.42
3113.89
1451.43
SCALARS SignedDistance double 1
LOOKUP_TABLE default
81.0377
79.9398
72.9437
69.3964
58.2577
59.6446
59.6723
64.1279
72.9878
72.0217
75.8646
77.5625
77.6372
52.7715
62.3003
60.2818
80.2321
81.0083
86.8912
59.4291
93.3052
85.2839
53.2207
74.8232
59.8407
56.3916
92.7778
77.8219
49.767
56.585
86.0247
53.3996
76.2758
57.0213
65.179
66.8403
65.2529
89.4154
74.6721
53.6843
84.7368
85.4724
78.6641
74.1434
71.8829
66.4291
70.5682
78.9745
51.7534
53.8584
56.8379
72.0029
80.8839
52.0313
57.6805
79.7012
71.4555
71.0569
111.736
109.39
112.257
112.637
79.9963
93.2244
79.2681
87.604
135.437
56.1816
74.6492
80.6935
76.0234
72.3816
85.7177
92.483
130.187
83.939
78.3698
69.8638
76.6032
57.0352
51.875
72.279
63.6187
63.4266
58.9411
58.2091
70.7953
54.7595
50.27
52.1325
56.0102
84.9219
75.5887
78.8774
102.046
76.3799
79.8213
76.0394
56.9775
73.8721
50.4732
46.9922
52.5354
48.7253
49.8074
73.9007
57.7936
128.82
80.6697
71.7751
74.8068
76.8647
71.5524
68.6682
66.7344
67.2435
67.6733
73.492
63.1796
63.8621
55.9092
68.0651
66.1796
64.8737
65.5238
69.0411
70.1509
69.7246
63.9766
67.6361
70.9195
66.8195
74.8527
64.3087
76.7089
89.8619
71.9237
54.2492
78.9687
75.5371
75.5392
71.9296
78.0598
89.0512
101.486
77.8484
79.3962
52.6076
52.2523
58.9884
71.2361
65.8391
73.6693
75.6093
89.242
75.5117
52.9106
51.5784
51.1134
79.1123
124.418
84.0217
80.3741
74.6286
77.3712
76.0354
73.8078
76.3382
69.9789
71.6691
69.69
77.9808
80.2009
79.3639
57.0054
65.3347
55.0168
76.5476
79.0469
77.1864
55.8203
56.2428
58.1905
53.9489
52.3812
52.0485
53.5657
53.9038
52.9147
70.708
56.6496
59.9835
76.4571
80.6693
70.2581
70.9276
81.1237
75.7977
75.8713
55.8094
51.9823
57.7746
51.6737
52.6012
51.7086
57.8623
80.2209
75.4204
76.0228
74.6306
74.9769
79.7721
68.6641
70.6805
69.6579
70.7647
70.2161
71.0339
84.5313
84.6484
86.2892
85.6293
89.373
119.035
104.187
84.6252
84.095
100.472
111.261
87.7177
83.2352
86.6555
74.5265
79.5628
74.8388
92.5932
81.9787
81.7307
79.8027
80.7042
84.9552
111.004
113.04
113.187
138.354
88.1482
83.8942
89.4198
134.274
119.017
98.896
61.0921
70.9504
67.5502
65.7499
55.0491
76.9443
79.7053
76.4985
74.6412
74.728
81.1549
76.6278
86.9822
68.0378
73.8355
72.2414
80.4435
74.9985
81.702
89.3541
113.635
110.507
82.9975
80.8456
81.4741
89.8607
111.245
96.2141
117.624
101.266
113.09
79.1133
78.9854
79.1676
77.8902
85.4924
79.8158
86.3299
122.397
109.414
87.0907
73.092
78.6379
65.4474
70.0275
74.2371
71.4781
72.5007
58.0629
56.575
50.8659
54.6827
53.7461
51.8701
52.4073
71.5808
74.0745
70.7362
74.4119
72.1838
75.4651
55.4196
64.2171
55.1102
56.96
52.5865
66.01
57.9633
57.8789
53.394
57.7703
58.8302
60.1235
58.2795
75.3306
70.8441
57.1286
59.9871
64.1961
59.8086
55.0237
53.3213
52.9995
57.3076
55.5822
54.216
55.7429
56.8095
52.0258
53.7732
54.1373
53.0224
54.7172
75.797
74.9587
86.4264
83.8281
77.829
81.2909
80.3882
76.5183
85.5066
95.487
83.7509
81.1347
96.9262
99.7384
73.305
75.1211
73.546
80.9269
77.1717
76.0873
92.2073
77.3636
87.3394
83.9814
81.4829
81.622
74.8182
74.5817
55.9966
66.1361
66.2493
67.7111
56.5854
55.867
53.3384
49.9389
49.0996
49.4183
49.1652
50.5409
57.0316
51.0154
52.715
48.3277
47.7173
52.1738
49.3764
50.8918
49.8081
50.1787
48.3047
49.9692
71.5896
60.4906
78.3606
78.4382
51.943
65.008
63.481
85.3999
112.568
89.7755
106.105
121.529
85.06
78.0677
72.398
73.9112
74.3762
68.3056
72.455
62.255
78.8388
75.0973
76.8155
77.2106
77.2332
74.2721
69.6686
68.791
68.6716
72.8541
71.0128
74.1421
66.526
68.0222
66.0371
70.8541
71.3423
71.8022
65.5974
68.5182
61.0478
71.4106
70.2587
70.4856
62.1758
60.5997
56.7361
65.2389
63.4163
65.0822
55.2867
60.3904
61.6226
69.3567
65.488
67.3399
68.7933
68.1816
67.8097
67.5228
65.2453
66.8439
65.7981
62.7391
63.1472
65.4714
65.7757
66.1289
64.8958
65.2182
71.9133
71.0518
71.871
66.5501
68.4127
66.442
68.9707
69.4331
68.1577
67.9792
68.2953
68.4109
66.356
68.3874
65.1403
64.832
65.2538
64.0965
62.4899
72.133
70.2028
65.193
68.4139
69.3343
67.3671
65.7705
68.346
73.6395
68.6455
65.8353
82.7987
87.5866
92.4452
89.7081
72.849
65.8555
62.0736
61.521
70.4034
70.0806
86.2155
68.9371
75.5206
72.0904
86.0043
56.9549
64.5784
64.7176
64.9294
51.9921
78.3445
90.2497
74.1995
74.7899
72.3801
75.461
75.2155
75.9663
63.3355
75.2419
71.8249
84.0078
77.3187
77.7689
71.5979
77.1518
73.6107
74.0236
77.9615
77.7109
82.025
88.3334
92.5693
98.9179
81.8389
89.3215
76.9645
72.8827
77.3139
77.468
80.8499
79.7374
81.6021
80.4589
80.9723
80.5426
52.7312
51.8618
51.3676
53.8042
55.1424
65.0051
53.7696
56.7405
57.8064
53.2782
57.8319
57.6008
60.0097
57.916
53.6458
49.9708
53.0543
56.1212
72.6534
68.7959
70.6173
73.0686
74.971
61.809
62.9477
61.9431
65.655
67.2892
74.4193
74.8094
75.4249
72.6546
67.1326
69.2461
69.0594
71.9859
65.9339
81.821
78.4648
62.7572
65.4026
73.6693
89.4676
86.2303
76.2789
89.387
75.7632
71.6649
73.4636
77.0593
79.2511
77.8827
78.3526
75.6753
71.3718
52.8238
61.8653
61.796
52.802
50.8432
49.2459
50.9854
49.7823
46.6717
53.0582
46.6856
51.1623
49.9605
49.4885
47.8984
49.1185
47.9228
73.3907
80.2294
79.9389
76.1166
76.069
83.5724
103.638
91.2394
94.9894
109.304
88.4603
78.3134
81.5654
107.81
122.621
98.959
115.517
81.9676
