# vtk DataFile Version 4.2
vtk output
ASCII
DATASET POLYDATA
POINTS 642 double
-90.304 181.987 82.2251
98.4665 184.092 80.7324
-76.7741 -184.232 -3.55823
90.9575 -191.294 -6.47034
3.00355 -120.621 253.955
0.0469894 160.924 217.23
-0.53869 -122.904 -254.156
-3.05288 113.714 -253.057
163.121 -0.412246 -190.34
176.265 5.81367 177.574
-151.564 -3.00321 -188.544
-172.723 33.2638 182.768
-157.875 126.771 137.35
-134.056 82.7929 230.278
-73.883 222.267 150.399
79.5311 222.063 151.094
0.865835 213.617 79.1985
79.1499 128.314 -180.638
-62.5284 129.675 -179.808
-122.314 71.721 -250.105
-128.209 81.1509 -128.617
-145.488 -8.77584 28.5944
135.162 90.0237 228.963
168.817 130.751 137.316
-115.118 -67.842 235.548
0.467437 -23.6131 280.514
-129.966 -87.4281 -130.075
-132.657 -96.0481 97.9358
-1.68675 1.70642 -302.133
-127.74 -80.3825 -250.658
139.7 87.8054 -140.512
135.819 79.3063 -253.677
147.88 -98.4774 96.9447
127.047 -67.1585 241.597
62.3106 -172.779 132.66
-54.3181 -169.364 132.359
4.18047 -236.92 -8.1663
-43.005 -172.473 -148.846
60.6627 -179.062 -126.676
136.244 -79.6923 -253.304
125.707 -85.1992 -119.993
159.802 -4.40824 29.2748
-127.163 160.76 108.068
-130.565 176.154 142.454
-86.1207 209.286 123.322
-174.992 49.1399 198.915
-164.419 110.958 172.562
-174.056 69.7235 170.669
-41.092 200.763 197.348
-108.341 163.103 194.945
-80.3155 122.205 231.99
-35.4504 232.957 124.131
-48.964 207.283 84.1549
43.566 200.087 197.28
-0.125979 235.383 156.686
55.6005 205.885 81.0994
37.0931 232.219 123.437
95.2247 209.867 121.089
-11.1096 144.568 -35.5562
-65.9765 98.9021 -59.832
61.6513 104.639 -70.8585
13.3621 147.087 -33.4589
-48.1587 127.187 -217.415
-2.51057 133.436 -169.445
56.6239 126.407 -217.91
-107.95 104.523 -159.774
-134.326 140.593 -14.5179
-71.053 101.256 -263.918
-93.0681 115.833 -216.264
-150.959 43.6961 -153.901
-131.929 78.4348 -198.62
-149.272 31.8645 -221.073
-135.551 112.463 69.024
-154.8 -3.27568 -117.511
-153.549 56.1723 -75.9413
-160.067 72.3035 101.79
-167.166 21.3461 124.154
141.175 178.918 141.37
138.325 164.112 105.976
85.7728 124.033 231.312
117.186 165.049 198.295
176.46 88.4239 148.826
171.825 122.524 173.287
171.183 43.4852 202.886
-82.4598 33.5648 258.62
-0.131119 66.021 252.098
-156.8 -23.2499 203.734
-134.561 2.65528 243.66
3.01506 -77.4865 286.219
-70.5253 -47.2249 274.587
-59.8661 -101.648 252.246
-147.745 -39.4558 79.8013
-156.435 -31.752 154.803
-150.095 -53.0192 -168.265
-137.83 -31.0641 -78.7696
-110.035 -146.922 44.8082
-127.985 -113.243 5.98011
-105.734 -148.248 -37.4711
-134.468 -1.75219 -265.609
-150.281 -41.6125 -221.386
-4.35449 68.8828 -292.749
-77.0431 43.5875 -296.77
-75.5856 -109.888 -264.616
-79.4171 -43.4881 -293.237
-1.54476 -73.0365 -289.366
108.139 120.812 -219.556
83.6516 103.164 -261.821
134.883 131.075 -11.6617
120.894 110.194 -169
162.68 46.2056 -221.172
149.512 85.0724 -204.104
160.6 52.6865 -169.688
122.51 -154.359 38.2403
112.161 -144.2 117.319
82.1876 -188.247 60.0605
165.742 -28.2784 210.719
145.095 -75.9756 186.355
167.563 -36.4211 153.933
31.5559 -145.506 204.078
94.1257 -119.525 204.621
63.6725 -101.003 253.854
28.0287 -211.066 47.3988
43.7646 -224.247 -10.2785
-27.7428 -142.637 204.573
3.54826 -182.432 141.423
-31.1917 -221.494 -8.29396
-19.699 -208.199 47.3806
-72.2218 -183.166 61.9326
29.8446 -225.479 -66.0601
73.9984 -202.28 -63.4125
-60.8569 -194.551 -65.0915
-18.281 -222.812 -66.2561
47.7486 -137.935 -222.284
2.13665 -201.742 -117.827
-56.6553 -139.781 -219.042
95.2434 -135.67 -142.129
117.841 -159.158 -34.5565
77.7061 -106.558 -262.924
107.972 -124.155 -218.605
160.324 -48.5458 -181.216
149.682 -83.0921 -213.159
162.702 -47.4697 -221.156
140.359 -123.499 3.75317
165.627 0.695708 -123.753
154.369 -33.371 -67.2966
164.727 -50.2386 74.7053
178.012 13.4601 114.205
78.5524 -46.2505 276.365
139.539 -7.08379 250.611
87.4271 28.9196 260.751
-102.906 -137.65 118.526
-87.0763 -117.037 203.987
-134.66 -74.6647 182.36
-99.5634 -126.244 -220.912
-106.31 -114.162 -152.996
-138.813 -85.9675 -202.769
140.444 0.00727608 -261.702
82.2337 -47.2893 -290.793
81.7522 47.441 -290.759
171.426 73.9932 98.6418
164.603 59.554 -76.3647
145.278 118.573 66.31
-108.098 173.142 91.7652
-109.485 186.895 118.141
-88.7069 196.924 101.328
-148.92 149.525 140.969
-131.052 169.994 135.97
-145.762 144.333 128.822
-81.9841 217.235 135.47
-108.428 195.731 136.264
-105.318 202.478 145.123
-177.029 40.127 186.379
-179.412 59.2594 180.048
-177.465 52.8513 178.954
-152.204 97.5397 203.735
-172.913 76.6165 189.75
-156.773 64.7788 217.65
-165.24 103.687 149.375
-170.88 88.4472 166.319
-163.186 123.207 149.885
-21.4909 183.134 211.695
-60.0976 166.9 213.317
-41.5414 143.717 223.275
-91.2621 198.051 172.905
-76.396 185.272 196.51
-58.1104 214.313 175.921
-108.606 102.482 235.044
-95.3686 144.43 216.984
-123.597 123.383 215.261
-151.857 149.731 153.64
-140.542 138.354 185.795
-125.104 176.493 163.239
-66.8363 212.208 103.597
-71.3452 196.389 83.6421
-53.1787 232.155 134.563
-59.5985 224.773 125.099
-25.6299 212.454 82.3355
-42.143 222.621 105.734
-18.5015 226.016 104.727
22.4932 182.979 211.739
-0.0314274 203.767 197.895
41.1552 232.872 155.818
22.1395 221.787 178.833
62.2615 213.475 176.045
-21.69 221.823 178.839
-39.7208 233.484 155.511
79.8208 195.582 80.098
75.4212 211.739 102.201
98.2915 197.842 100.252
18.5207 226.218 103.595
46.3411 221.532 104.401
27.9176 212.078 79.6466
89.8043 217.999 133.7
66.8406 223.753 123.141
57.2553 231.028 133.883
-21.1326 239.753 136.129
20.8475 239.343 136.221
-0.548809 234.54 125.37
-57.1828 184.847 59.3782
-80.5406 170.073 57.2523
-9.50009 193.378 49.3022
-30.2551 192.234 55.6799
-63.0705 126.551 -166.772
-16.1624 145.127 -54.4401
-40.5638 132.556 -147.547
82.1979 173.058 51.675
68.1124 181.384 53.072
52.6925 134.239 -143.338
34.2292 133.527 -49.851
79.5628 128.538 -159.658
35.5049 192.434 52.6171
13.9266 193.457 47.6777
-27.5524 124.1 -234.925
-1.07144 126.684 -218.424
27.697 124.322 -233.455
-42.9959 133.21 -172.591
-28.9588 128.972 -197.419
-59.7751 128.75 -197.788
73.574 126.7 -203.26
29.0316 127.557 -200.027
50.257 130.842 -173.414
5.83766 147.169 -30.7993
20.9907 136.56 -125.949
-20.0448 133.675 -129.022
-134.585 134.625 -34.1419
-107.982 148.549 52.3839
-85.7463 119.606 -179.258
-103.111 106.068 -150.929
-124.606 118.217 -91.7689
-121.486 112.993 -108.79
-117.479 104.131 -133.211
-41.009 108.224 -259.852
-60.6326 121.974 -239.19
-109.607 98.8197 -234.681
-86.1504 113.456 -239.685
-97.3193 88.6648 -260.715
-71.733 125.455 -217.861
-78.0993 124.67 -198.998
-152.219 25.5576 -173.103
-148.463 40.5856 -195.983
-150.65 14.4456 -208.621
-131.233 79.178 -165.787
-141.551 60.6412 -182.127
-145.741 56.5529 -139.389
-140.568 52.0886 -235.193
-141.638 58.3238 -211.33
-131.288 76.717 -222.733
-100.217 113.234 -191.86
-115.931 99.0322 -208.254
-117.451 97.717 -179.793
-125.556 140.013 60.0338
-101.179 105.344 -40.5018
-131.191 141.205 29.1073
-132.895 138.71 89.8399
-150.037 122.258 112.534
-155.168 -2.32483 -145.627
-155.714 27.4335 -131.215
-137.952 47.646 -37.2345
-150.311 33.2608 -112.434
-161.933 -14.0938 -80.9003
-152.633 47.4441 -112.356
-153.066 51.9967 -97.7992
-172.033 52.7781 163.31
-170.022 33.9819 165.122
-160.819 103.027 125.08
-167.673 75.2826 143.249
-161.504 12.3092 90.1924
-166.29 44.7287 116.825
-157.01 39.2017 77.8936
-155.209 71.989 1.71939
-153.306 77.6081 33.8281
-151.167 89.3429 82.531
119.725 188.98 115.831
118.936 175.57 91.8543
113.689 203.743 145.373
117.945 197.725 132.444
155.856 148.902 124.065
141.493 172.894 130.449
159.734 153.3 139.345
44.0955 143.884 223.082
65.6162 166.489 213.587
129.654 130.261 216.817
102.842 146.775 218.534
112.245 108.481 235.141
83.6659 184.665 198.057
98.8936 197.622 175.142
175.823 41.9577 165.67
174.716 67.7207 175.368
175.46 20.3641 188.638
174.109 129.591 149.365
176.409 107.01 159.605
174.93 113.213 142.723
156.653 67.5812 216.999
171.824 89.7015 188.591
156.351 108.758 203.421
134.148 177.419 167.11
149.36 144.524 189.049
162.002 153.309 156.882
-49.23 98.0002 241.416
-0.0305855 117.264 234.705
-112.84 65.2599 248.947
-87.5219 80.1162 246.624
-0.294845 16.2141 270.261
-47.2821 45.5713 256.644
-42.2416 2.52382 272.55
-166.21 3.37177 187.883
-165.932 13.805 201.26
-126.451 -34.1345 242.514
-148.785 -12.8028 225.841
-139.036 -45.1086 219.752
-152.409 29.3946 222.328
-138.142 45.7638 239.426
2.92807 -102.956 271.988
-24.8577 -90.7564 271.296
-21.5679 -113.043 254.502
-33.2097 -37.3201 279.396
-26.5197 -64.3838 280.45
2.10658 -55.4029 289.465
-89.0677 -86.9331 246.86
-66.27 -76.3064 267.361
-95.3503 -59.1361 259.009
-110.537 18.5192 256.795
-103.594 -23.4194 263.212
-76.9337 -10.5821 274.426
-165.356 -4.84651 137.324
-165.181 -1.69284 170.337
-148.786 -13.0944 61.0395
-161.907 -8.52713 102.085
-145.29 -60.9435 131.004
-156.353 -34.0624 115.445
-142.176 -71.0983 88.9328
-152.053 -35.6776 -176.581
-155.772 -27.3762 -137.349
-132.587 -72.9779 -110.839
-151.092 -40.5937 -137.088
-143.235 -67.8676 -158.927
-154.228 -15.26 -106.905
-152.501 -18.391 -33.4336
-96.5401 -163.953 21.808
-109.788 -148.173 4.03392
-92.3012 -168.25 -18.8316
-129.972 -108.376 53.4457
-121.158 -129.387 27.4924
-122.521 -124.934 67.2984
-116.955 -115.575 -78.3808
-120.114 -130.049 -16.4917
-124.804 -103.806 -51.7591
-145.165 -48.3934 10.1516
-134.255 -85.2042 -25.365
-135.648 -83.4267 37.2835
-150.998 -3.23645 -225.779
-150.471 -22.8812 -209.26
-130.25 36.4976 -260.448
-145.523 15.8012 -242.258
-145.631 -60.9922 -235.171
-146.845 -21.4838 -242.095
-132.026 -40.8349 -259.388
-4.0003 94.3529 -274.539
-43.4888 85.2877 -282.234
-46.3822 24.8776 -302.352
-44.7689 57.6707 -297.844
-2.99906 40.3466 -301.985
-75.3345 74.5197 -284.293
-102.035 59.9239 -277.245
-43.4148 -117.228 -260.189
-45.9721 -92.7998 -279.975
-0.832134 -102.607 -273.364
-105.874 -65.274 -276.686
-79.4915 -81.3413 -282.635
-102.323 -97.0034 -261.552
-1.66237 -38.127 -300.252
-45.8284 -58.4643 -293.489
-46.5323 -21.3391 -302.312
-108.108 19.697 -284.403
-80.6512 0.782631 -300.556
[...]
POINT_DATA 642
SCALARS Mean_Curvature double 1
LOOKUP_TABLE default
0.00628279
0.00570803
0.00661469
0.00902633
0.0295197
-0.00425734
0.0100842
0.00995596
-0.00199944
0.00938561
-0.000516748
-0.0281983
0.0104768
0.0124168
0.0268847
0.0238944
0.00826159
0.0126174
0.0291895
0.0175978
-0.0146589
-0.00803788
0.00952334
0.00592084
0.0131043
0.00460624
0.0127598
0.00505867
0.00111033
0.0189549
-0.0166208
0.0200608
0.0075218
0.0166816
0.00874764
0.00875363
0.055697
-0.00927862
0.0250773
0.018203
-0.00297384
-0.00265231
0.00946782
0.0507587
0.00781052
0.0313488
0.0202143
-0.00920331
0.0145857
0.0090876
0.008981
0.0120025
0.00878346
0.0122776
0.0147301
0.00637828
0.00888515
0.00938339
-0.089482
-0.0204441
-0.0207694
0.0223749
0.00790257
0.00424123
0.00791826
0.028836
0.10388
0.0174728
0.0156173
0.0155034
0.0094627
0.0207205
-0.0166494
0.00268494
0.0659739
0.00733788
0.00667717
0.0337556
0.011182
0.00514213
0.0120157
0.00226886
0.0241623
0.0189753
0.00196639
0.000866777
0.0226855
0.0157699
0.02953
0.016219
0.0142836
-0.00114332
0.00351148
0.0157966
-0.0179967
0.00766118
0.00677038
0.00573346
0.0195391
0.0142777
0.0113998
0.0182601
0.0180399
0.0101706
0.0065304
0.0286178
0.0134557
0.139457
0.0141159
0.0230968
0.0158301
0.00964422
0.00869741
0.00814789
0.0109884
0.0236761
0.00722738
0.00195554
0.00430405
0.00728456
0.0098869
0.00201448
0.0187568
0.00312901
0.0156348
0.0198188
-0.00207295
0.0125384
0.0210573
0.0149488
0.0104785
0.0209607
0.00854234
0.00927603
0.00455877
0.00151449
0.00905772
0.00974119
0.0290194
0.01283
0.0154954
0.0235006
0.010234
0.00816769
0.00301584
0.00770048
0.0136671
0.0141551
0.0147226
0.000274431
0.0077609
0.00839573
0.00921938
0.0280226
0.0083589
0.0152066
0.00785728
0.0105896
0.00951811
0.00598967
0.0697504
-0.014477
0.00646649
0.00793288
0.0125209
0.0264811
-0.00758693
0.00177517
0.0291566
0.00301905
0.038716
0.0786
0.083602
-0.000403158
0.00828135
0.0252235
0.0152426
-0.00260013
0.0310462
0.0405263
0.0156401
0.00966912
-0.000683435
0.0119084
0.0125675
0.0121597
0.014505
0.0121447
0.0123088
0.0324317
0.00968384
0.0160939
0.0141469
0.00892538
0.0394651
0.00453093
0.00837649
0.0116434
0.00889073
0.0152876
0.00943416
0.0221152
0.0135854
0.00962052
0.0136845
0.023623
0.0093084
0.0130993
0.0116618
0.0105535
0.00701906
0.00856563
0.0314068
0.0075618
0.0308789
0.0428729
0.0404794
-0.00294391
0.00234145
0.000119498
0.00709466
0.00631557
0.00446697
0.042709
0.00535124
0.00130013
0.00337682
0.0159373
0.0015103
0.0141044
0.00391144
0.00949283
0.0178653
0.00460604
0.0191652
0.0134045
-0.0029573
0.00869859
-0.000956531
-0.00395661
0.0010075
-0.00378337
0.00194855
-0.00446123
-0.0264726
-0.0236213
0.0100308
-0.000759206
0.0643498
-0.0219307
0.0106157
0.00904167
0.0245821
0.0213681
0.0239677
0.0156842
0.0237076
0.0178319
0.00493417
0.0102057
0.00190201
0.00361138
0.00543715
0.00786657
0.0221447
0.0108072
0.0186255
0.0173946
0.0150663
0.0154781
-0.0418875
-0.0309172
0.0443748
0.0145014
0.00499437
0.00276277
0.0192295
-0.0197679
-0.0180778
0.0335582
0.031668
0.0132961
0.000959926
-0.00391052
0.00943149
0.00139054
0.0118747
0.00661098
-0.00236595
0.0459932
-0.0139313
0.00787622
0.00906994
0.00749313
0.0282515
0.0156153
0.0067142
0.00443374
0.0243758
-0.00113654
0.00765775
0.0156404
0.0135053
0.0182807
0.0125788
0.0116138
-7.44998e-05
0.00555212
0.010063
0.042514
0.017234
0.0177977
0.0103147
0.021171
0.0122137
0.0140262
0.0143183
0.0276557
0.00193621
0.00163952
0.0192441
0.0052247
0.00424579
-0.00148267
0.00438785
0.0185464
0.017421
0.0124741
0.0176631
0.0127106
0.00234079
0.0181657
0.0268881
0.0104389
0.00968037
0.00436683
0.00982532
0.0282952
0.0164882
0.0166783
0.014852
0.0117165
0.0149067
0.0181894
0.00895994
0.00411722
0.00460384
0.0118495
0.00248928
0.00855318
0.0060836
0.00283119
0.0250164
-0.00216835
0.0038182
0.00523177
-0.0072854
0.0063032
0.00554733
0.00820501
0.00716078
0.00744933
0.00735901
0.0105602
0.00161993
0.0121909
0.00167925
0.00140555
0.00456788
-0.00158214
0.0183169
-0.00280865
0.014142
0.0157137
0.0278206
0.018686
0.00834268
0.00839624
0.0116616
0.00593288
0.0154965
0.0104808
0.0181232
0.0149581
0.00928194
0.0110565
0.00854764
0.0152861
0.0183858
0.0161964
0.00769889
0.00596612
0.0086181
0.0109476
0.0168522
0.015797
0.0202865
0.00706254
0.0123601
0.0244313
0.019534
0.0293466
0.0228987
-0.010093
-0.0251356
-0.00142404
0.0559473
0.0964505
-0.00106891
0.0091673
-0.000867543
0.0155549
0.00548843
0.0257741
0.0269941
0.0289366
0.00374895
0.0121166
0.00495454
0.00998745
0.0110191
0.024318
0.00885293
0.0108735
0.00635835
0.00653972
0.0064342
0.00666481
0.0103564
0.00853721
0.00901291
0.0208252
0.00478637
0.00789272
0.0112114
0.00787677
0.0215977
0.00879346
0.00766917
0.0039894
0.0103255
0.00718448
0.0118954
0.00659661
0.00700334
0.00538556
0.0152597
0.0136113
0.0124901
0.00419523
0.00808786
0.00551162
0.000659289
0.0130164
0.00681686
0.00973026
0.0267025
0.00887474
0.019353
0.00543985
0.0145993
0.00825204
0.00577872
0.00515093
0.00982213
0.00735584
0.0108723
0.000185816
0.00307148
0.0184318
0.011497
0.027193
0.00791757
0.0131176
0.00903738
0.00569011
0.00603604
0.01782
0.00745136
0.00747309
0.0154927
0.00460562
0.0124278
0.0189474
0.0154121
0.00435232
0.00359712
0.0184652
0.013087
0.00498692
0.00301639
0.020385
0.0192214
-0.00208309
0.0174623
0.0128957
-0.00582911
-0.0250453
-0.0310415
-0.0182519
0.0460505
0.0133872
0.0221023
0.0189068
0.00695029
0.00929303
0.00924583
0.00850667
0.00629323
0.00736772
-0.00932659
0.0114391
0.0223556
0.0257164
0.0189221
0.0164552
0.0131322
0.0331392
0.00928104
0.0240057
-0.000814607
0.00230175
0.00803222
0.00411072
0.0319774
0.0383257
0.0381413
0.0124169
0.0329916
0.0053643
0.0100495
0.00757464
0.0148923
0.0129908
0.003394
0.00312663
0.0269808
0.0130717
0.041863
-0.0279325
0.0132329
-0.00798727
0.009889
0.00366061
0.00834713
0.00892615
0.000546486
-0.00325875
0.0110085
0.0010739
0.0021015
-0.00375413
0.0128162
0.015668
0.0146478
0.015991
0.000204329
0.0280489
0.00538574
0.011492
0.0168324
0.0199735
0.00187463
0.00300556
-0.00184057
0.00375902
0.0178261
0.0233454
0.0160543
0.0178631
0.0135059
0.00734613
0.00699836
0.00779857
0.00737701
0.0130011
0.0128113
0.0145236
0.00601297
0.00505518
0.00722619
0.00429253
0.00321196
0.0139015
0.013934
0.00569352
0.0113368
0.00542385
0.0221393
0.0152515
0.0512029
0.0234847
0.0248503
0.0058304
0.00519624
0.00613989
0.0115644
-0.023524
0.0139101
0.0245221
0.0197893
0.0145723
0.00766887
0.00379944
0.00831047
0.0218538
0.0159638
0.0159547
0.0159802
0.0161565
0.0164498
0.013239
0.0101152
0.00370709
0.0131292
0.0228549
0.00653257
0.0229902
0.017992
0.00862906
0.0107779
0.0107644
0.00616665
0.0108594
0.00318958
-0.000135844
0.0102163
0.018124
0.00212121
0.0167085
0.00988124
0.000863234
-0.00337095
-0.0140304
-0.0145299
0.00595246
0.0176466
0.0495272
-0.0340646
-0.0744979
-0.0288867
0.00937392
SCALARS CoVolArea double 1
LOOKUP_TABLE default
635.146
692.314
746.429
639.207
515.578
1301.84
922.084
997.847
963.267
474.639
863.795
311.467
449.479
1101.37
814.579
924.243
900.224
606.571
403.519
961.303
1964.72
2902
1284.08
444.299
968.505
1547.95
1191.57
1232.74
1874.67
1010.95
1858.62
899.724
1230.16
899.459
1262.27
1271.94
291.789
1463.26
1262.08
914.21
2653.82
3238.58
927.215
472.262
572.861
707.405
976.474
358.692
1087.98
1343.64
1375.01
489.838
721.128
1185.56
983.955
870.54
572.026
559.108
1408.38
6974.34
4755.12
1848.94
686.289
1688.47
762.04
470.395
668.943
920.791
603.387
728.916
669.167
622.97
2773.59
755.395
799.56
1382.23
988.071
623.617
812.97
1422.06
1251.04
823.26
870.771
1063
1548.75
2662.09
720.382
1144.06
762.686
1176.81
1008.2
1687.78
997.822
571.693
2562.22
852.424
1268.44
1371.9
1139.07
624.685
1408.31
1214.99
958.948
1362.49
1638.82
521.209
1022.78
1051.25
608.77
634.539
490.279
669.165
944.985
1347.45
1073.14
616.593
1089.04
1029.6
1158.05
1158.33
1134.29
1227.35
727.855
1152.42
1124.15
690.52
1210.96
1018.09
731.011
765.933
973.751
681.003
1620.74
1834.03
1195.22
1917.06
916.054
1095.8
618.56
446.551
305.804
594.65
1089.84
892.969
2143.84
1435.27
1042.81
1167.53
1092.24
1619.35
1307.76
1039.93
896.245
546.736
1663.21
468.081
1482.92
1429.09
1404.69
1278.84
825.785
2610.02
906.841
732.297
626.913
350.099
535.863
655.955
426.015
434.695
702.433
297.479
283.752
207.002
1224.58
782.863
980.077
506.045
438.38
455.206
1154.22
1260.7
1668.25
1177.21
1168.09
1042.74
1076.08
1193.65
1275.28
851.052
1432.59
1188.08
620.659
661.311
491.651
474.126
751.027
589.909
750.911
1215.15
1105.69
961.234
1131.1
1140.63
1082
881.819
664.958
679.087
624.677
812.706
712.426
839.639
498.238
530.963
581.57
636.495
681.365
657.143
3068.19
3050.74
1404.4
1533.75
2579.33
3818.2
835.098
2861.72
2250.84
1639
3261.25
1801.89
1927.95
1266.67
930.12
966.211
1051.7
818.581
1052.46
498.522
656.892
1233.79
1300.44
1775.77
2107.99
1856.07
3665.66
1348.44
537.598
2551.08
1590.61
355.753
689.434
1027.78
749.311
803.337
725.415
915.032
502.552
445.357
931.031
695.06
688.452
946.167
746.534
826.933
766.445
596.11
705.516
594.388
701.968
739.594
872.128
4736.24
1935
977.52
935.53
1085.8
766.537
4200.88
1442.44
2395.68
416.506
2182.62
717.391
762.8
884.637
958.436
1140.7
1141.29
2803.29
2653.61
1751.95
1210.71
664.346
835.472
838.643
483.163
633.541
539.851
434.456
1775.81
1336.46
1156.17
1132.55
1076.98
1211.49
1239.23
1001.32
880.899
700.836
432.235
591.878
380.362
1260.28
983.432
1178.99
1222.13
1261.14
861.247
2166.02
2350.18
1194.93
1479.24
2179.47
2116.09
1695.38
509.089
797.607
1059.71
968.932
851.398
1038.39
1122.98
719.507
995.599
879.517
1271.28
1001.13
918.211
878.976
1069.64
1038.43
1361.6
1228.58
1441.53
1101.81
792.711
1520.17
1015.55
1214.12
1172.48
1419.42
929.144
657.358
2050.34
1132.46
838.244
816.087
1506.88
925.049
938.268
979.643
1150.97
882.118
954.687
1608.81
1136.91
1500.47
2726.88
2606.19
1939.55
634.158
721.415
1125.98
832.787
786.458
848.889
1190.27
1360.07
1133.22
1546.44
1185.42
1522.15
1004.68
1147
1107.45
1322.06
1370.25
1233.43
1127.24
947.928
1737.44
1478.47
1668.44
1343.8
1464.47
1386.78
857.66
1306.69
435.2
463.045
849.642
684.021
788.671
1782.51
4381.04
607.413
1094.37
862.612
2427.88
580.47
765.993
506.593
1000.2
667.371
439.491
730.388
860.563
486.265
750.362
555.473
639.64
614.311
864.204
1001.04
956.968
1367.99
1097.62
1095.03
1051.62
1040.85
1279.43
472.4
671.737
630.651
886.687
730.874
736.061
1140.08
1012.04
1329.63
835.634
1134.4
856.654
1331.4
1188.65
1254.77
984.465
1021.18
969.126
1503.07
1250.89
1486.71
1040.06
804.721
1324.14
1190.73
444.075
853.796
575.363
860.432
998.806
1270.63
1124.14
1273.9
1072.16
1257.45
848.724
981.317
979.032
568.255
788.238
398.962
1038.76
1125.18
1269.11
1406.34
1393.55
1164.19
781.924
763.819
597.78
709.955
999.07
702.363
865.109
895.109
867.744
872.308
774.282
1603.51
695.113
553.702
915.218
2074.46
973.413
1666.32
3109.22
1893.34
636.156
2567.52
1046.21
753.083
831.915
837.921
900.262
814.43
1366.6
1391.96
1796.3
1735.19
2433.6
1123.92
900.526
802.444
856.174
959.899
925.643
910.535
844.395
377.69
721.444
1301.76
310.132
1488.68
713.011
313.906
571.386
916.329
504.637
1131.15
803.15
1825.97
757.857
854.084
1216.16
1182.49
621.624
1349.71
610.308
2889.2
1205.35
2839.71
1031.8
961.902
1202.7
1123.96
1251.54
1161.76
1628.15
2509.58
2308.84
1722.7
967.207
1023.71
1152.93
988.93
1355.79
776.218
1429.84
1135.22
816.1
902.545
2282.06
1879.57
2300.81
1581.77
1372.54
1056.6
1331.41
1379.67
902.423
1307.92
1025.98
991.188
1267.58
1020.9
903.869
864.771
1069.01
1302.22
671.696
1203.97
850.512
692.864
874.816
1373.84
1076.92
1300.57
792.488
1081.36
479.944
740.499
785.317
1227.56
1302.89
1739.18
1743.86
2519.88
573.833
649.631
482.966
457.031
727.956
1141.98
781.263
558.71
860.783
1186.21
1079.43
1070.19
1173
1413.6
1762.91
1552.46
1157.41
1105.56
1455.46
1073.74
1090.44
1426.9
1710.77
1644.89
1814.2
1649.29
1161.38
2598.58
986.293
735.313
757.47
879.625
2688.15
558.371
1746.35
4371.46
776.47
964.208
848.506
1143
4491.03
1771.79
3087.34
1339.32
SCALARS SignedDistance double 1
LOOKUP_TABLE default
67.3334
66.6458
60.6653
57.6692
48.8859
50.1867
50.6828
54.6485
60.9047
60.1083
63.3186
64.555
64.7136
43.2935
53.5014
51.43
67.0802
68.2031
73.579
50.081
81.5658
71.2676
44.2339
62.2195
49.7549
47.0993
80.1207
64.8846
41.4443
47.5678
74.1773
44.6166
64.0368
47.7873
53.8226
55.4249
54.3507
80.8502
63.8477
45.0464
71.4283
71.9539
65.6363
62.1178
59.603
58.4734
61.5083
65.8097
42.3821
44.4701
47.4412
59.7702
67.5188
42.788
49.6978
66.5483
59.3851
59.0017
97.1523
96.1234
99.0862
97.639
67.0968
80.6099
66.316
74.4766
129.657
47.1932
62.2828
68.2961
63.3199
60.9325
72.2062
80.6086
118.803
70.6104
65.1649
58.7506
64.0382
47.5235
42.7772
60.3076
55.3392
55.6891
49.5452
48.1851
59.9783
45.363
41.4405
43.3801
46.4428
71.2244
62.9121
65.707
91.3021
63.6783
67.2629
63.3259
48.3276
61.9855
41.8102
38.6963
43.6336
40.5806
41.7386
62.2966
48.3895
115.181
67.9834
60.4154
62.3342
64.1009
59.5185
57.2291
55.0548
57.0843
56.0078
61.7065
52.49
52.946
46.6548
56.6113
54.9844
54.1096
54.4371
57.455
58.8258
58.0553
54.2895
56.6683
59.0872
55.8134
63.7628
53.356
66.077
77.854
59.5483
45.1506
67.9846
62.5652
62.6873
60.4453
65.9822
75.6182
90.5914
64.7006
66.5852
43.8325
43.1997
49.338
59.3687
54.7421
61.5824
64.0753
76.9716
62.7569
44.051
43.3355
42.9162
66.1184
114.829
70.9502
67.0546
62.0782
64.4319
63.2227
61.2118
63.3948
58.2883
59.4188
58.9883
65.6762
67.5265
66.0591
47.9037
57.6871
45.7698
63.59
66.4997
64.9247
47.7089
47.7067
48.5159
44.8261
42.9132
43.1623
44.4191
44.8174
43.6504
60.8745
47.2909
51.9554
63.7955
67.315
58.9817
58.765
67.8536
63.3216
63.372
47.7479
42.7736
49.4858
42.5618
43.9947
42.5973
49.5755
66.8983
62.8619
63.4882
62.3109
62.6165
66.6254
57.2539
58.7173
58.5973
59.9455
59.3754
58.9749
70.8662
70.7985
72.1432
71.8311
76.1662
110.83
90.7262
70.6844
70.243
87.7411
98.8665
75.1939
69.3447
72.7007
63.82
66.5944
64.0525
79.876
68.8902
68.6697
66.622
67.4848
72.5158
95.854
99.9223
99.3371
136.482
75.8245
70.2335
76.6013
127.389
111.196
89.5704
51.6046
61.5526
57.4993
56.6988
45.6274
65.2527
66.7211
63.9735
62.0587
62.385
68.0986
63.6426
74.5767
58.1114
61.6103
60.3599
67.3799
62.381
68.5207
79.2745
104.435
101.546
69.7725
67.6077
68.9147
76.9293
101.795
83.8928
109.067
90.2617
101.646
66.2401
66.263
65.8337
65.2138
71.6343
66.5207
72.6787
106.542
92.4753
74.0969
60.8595
65.5872
55.723
58.212
61.6169
59.2296
60.4738
48.414
47.8937
41.8524
45.681
45.0567
42.7379
43.5318
59.6596
61.8247
59.2711
62.8296
60.499
62.9425
46.2018
56.457
45.8949
47.8587
43.3957
56.8141
48.5258
48.1049
44.6616
48.1169
49.3236
50.3468
48.6979
63.5989
61.2246
47.7345
50.3483
53.9814
50.1438
46.1022
44.2531
43.8724
48.0558
46.4582
45.7205
46.9591
46.8951
42.5769
44.6012
45.0457
43.8036
45.5261
63.3267
62.945
72.4538
70.0433
65.3966
67.9642
67.7485
63.8613
72.546
83.3277
70.1832
67.6849
86.4645
91.9577
60.846
62.3121
60.9955
68.1339
64.2661
63.7788
79.5095
64.2084
74.2994
70.891
67.9776
68.0413
62.7214
62.208
46.6689
56.9795
57.0602
58.3289
47.7406
46.553
44.5149
41.662
40.7917
41.278
40.4951
41.738
47.8133
42.0397
43.63
39.3797
39.1428
43.1576
40.8964
42.4532
41.6126
41.6307
40.405
41.6896
62.0029
51.3805
65.333
65.9611
42.8355
57.1363
54.4923
72.1006
105.87
78.4683
95.6707
109.124
72.2268
65.0917
60.3886
61.5906
61.9753
57.7359
60.8322
53.5366
65.7793
62.3812
63.8701
64.0839
64.0733
62.1347
57.6382
56.8347
57.0138
61.1859
59.0273
61.9079
55.1169
56.5424
54.4052
59.0056
59.55
59.6355
54.8555
57.2285
51.8503
59.3398
58.7528
58.5475
52.2097
50.5207
47.507
54.0688
52.6597
54.3436
45.698
50.5826
51.8591
57.7944
54.234
55.9998
57.4882
56.76
56.7225
56.7743
54.2726
55.5673
54.6434
52.6364
52.3302
54.0179
54.9167
55.0134
54.0329
54.1237
60.0596
59.1933
59.5722
55.3223
56.761
55.0184
57.2461
57.9427
56.7561
56.5849
56.6972
57.061
54.9708
56.8828
54.4895
53.6696
53.7375
53.7121
51.5268
60.0817
58.458
53.9372
56.9644
57.7049
55.8406
55.0174
58.9662
62.2523
59.2629
54.9037
71.1092
76.312
82.603
80.8196
62.2015
55.2828
51.1874
51.0952
58.451
58.0968
75.6362
57.0934
63.2694
59.6658
72.6031
47.737
56.2104
56.3256
57.324
42.9591
67.6243
78.0868
61.6377
62.1736
60.3686
62.4634
62.1914
63.054
54.9718
62.919
61.5401
71.8107
64.7517
64.6299
59.3369
64.2698
61.3839
61.9717
65.6466
65.5107
69.2598
75.3477
79.17
91.7196
69.0006
76.6331
64.6495
60.8117
64.3828
65.2053
67.7448
66.7652
68.3984
67.2237
68.2984
67.2635
43.4495
42.7633
42.7021
45.2591
46.0927
55.8833
44.694
47.6653
48.6747
43.8163
48.4046
48.0831
50.233
48.2235
44.8549
41.4081
44.4853
46.9719
60.5412
56.9992
58.5882
60.5919
62.4396
51.8125
52.3942
51.8795
54.6124
55.9356
61.9946
62.4694
62.9197
61.0981
56.109
57.5873
57.6773
59.7308
57.7874
70.1337
67.5701
54.6583
56.241
61.1454
76.8638
75.0007
64.1525
76.732
63.2837
60.4603
61.2558
64.2756
66.0874
64.8518
65.2204
63.182
59.972
44.22
53.7986
53.7398
44.1712
41.9245
40.99
42.5572
41.1344
38.1977
44.0267
38.2041
42.4214
41.673
41.3467
39.6716
40.9814
39.6896
61.2667
67.0575
66.9049
63.6934
63.1566
71.4969
93.3085
80.5131
82.8665
99.8754
76.0955
65.3992
68.5464
93.779
119.592
89.8896
103.544
68.6873
