# vtk DataFile Version 4.2
vtk output
ASCII
DATASET POLYDATA
POINTS 642 double
-0.0946694 0.213265 0.0649266
0.123863 0.217773 0.0640791
-0.113335 -0.271336 -0.0104314
0.146336 -0.283643 -0.00845149
0.0147878 -0.158723 0.404663
0.0127904 0.202641 0.412542
0.013031 -0.131279 -0.393923
0.0140619 0.0850289 -0.37546
0.178516 -0.0107415 -0.265901
0.243602 0.0194778 0.279296
-0.144531 -0.0114587 -0.258185
-0.199738 0.0238277 0.266675
-0.17078 0.154656 0.186761
-0.126408 0.124153 0.387265
-0.062253 0.254869 0.274695
0.090469 0.259669 0.277437
0.0127289 0.251032 0.076557
0.073976 0.150691 -0.218689
-0.0458734 0.149576 -0.215032
-0.0791234 0.0439391 -0.361167
-0.141256 0.100524 -0.136868
-0.199986 0.00330701 0.0106657
0.159254 0.126239 0.397662
0.208307 0.162142 0.191532
-0.125851 -0.0796712 0.38487
0.0138221 0.0151187 0.476809
-0.155244 -0.136345 -0.165913
-0.190846 -0.144801 0.153734
0.0139259 -0.0153299 -0.426737
-0.0801823 -0.0753328 -0.370595
0.172016 0.103464 -0.144392
0.108868 0.0462681 -0.366247
0.232944 -0.15871 0.160751
0.15898 -0.0852573 0.395097
0.100304 -0.267918 0.24049
-0.0705728 -0.261537 0.23646
0.0152669 -0.32707 -0.0115817
-0.0540617 -0.234013 -0.241655
0.0853845 -0.244983 -0.241267
0.112846 -0.078794 -0.378573
0.194178 -0.148552 -0.166937
0.240064 0.000783105 0.0096967
-0.131945 0.19521 0.126196
-0.126157 0.214674 0.239866
-0.0839674 0.241711 0.173893
-0.175599 0.0710729 0.332959
-0.162156 0.150476 0.298958
-0.193573 0.0911945 0.235956
-0.0267137 0.238151 0.355972
-0.0986706 0.206019 0.342699
-0.0581568 0.17321 0.415563
-0.0242495 0.2683 0.187378
-0.0478579 0.238959 0.0734178
0.0531127 0.24024 0.35822
0.0126858 0.270578 0.287905
0.0747357 0.242038 0.0729069
0.0503224 0.271169 0.188208
0.11367 0.248126 0.175781
-0.0199681 0.208153 -0.0702802
-0.0741699 0.189053 -0.0677644
0.102115 0.191393 -0.071685
0.046153 0.209209 -0.0717302
-0.015513 0.116421 -0.317661
0.0135554 0.157466 -0.226802
0.0437274 0.117246 -0.319412
-0.0971888 0.13038 -0.184609
-0.122608 0.165447 -0.0276444
-0.0326587 0.0680698 -0.380097
-0.0659302 0.0975909 -0.308927
-0.147264 0.039288 -0.215211
-0.112711 0.0694133 -0.272358
-0.11758 0.0160817 -0.31742
-0.16171 0.136412 0.0414882
-0.174453 -0.00773875 -0.151319
-0.177173 0.0590629 -0.0700147
-0.19283 0.0821376 0.111503
-0.205083 0.0172329 0.163309
0.158955 0.222258 0.245185
0.164288 0.20163 0.127626
0.0860763 0.175546 0.420836
0.128885 0.210492 0.348834
0.237391 0.0949535 0.245018
0.197761 0.156418 0.307909
0.214255 0.069954 0.346158
-0.0675627 0.0770786 0.452362
0.0128833 0.125773 0.462138
-0.178241 -0.0227195 0.33152
-0.135251 0.0228715 0.40166
0.0147562 -0.0834663 0.450676
-0.0626799 -0.0376455 0.447521
-0.053648 -0.128782 0.409144
-0.205524 -0.0665068 0.0888293
-0.203069 -0.0530365 0.225821
-0.153215 -0.0641318 -0.227145
-0.187316 -0.0723642 -0.0909931
-0.157887 -0.224808 0.0653219
-0.186823 -0.157114 -0.00697568
-0.144332 -0.217285 -0.0833104
-0.0831322 -0.0138167 -0.379483
-0.119022 -0.0425221 -0.322459
0.0140175 0.0400023 -0.415376
-0.0341795 0.0148762 -0.410636
-0.0345421 -0.106493 -0.394397
-0.0341151 -0.0457485 -0.413837
0.0134858 -0.0727893 -0.419594
0.095306 0.0993755 -0.31336
0.0616978 0.0695945 -0.382908
0.152686 0.168963 -0.0320624
0.126317 0.13226 -0.191037
0.148983 0.0185185 -0.324697
0.142789 0.0720404 -0.279161
0.17931 0.0419205 -0.223
0.19412 -0.23955 0.0686026
0.177986 -0.226881 0.209752
0.131751 -0.291001 0.108169
0.216587 -0.029519 0.345296
0.209443 -0.125784 0.299959
0.248008 -0.0627888 0.236969
0.0565124 -0.216585 0.345824
0.135634 -0.184164 0.339535
0.0836765 -0.131474 0.41381
0.057644 -0.318445 0.112597
0.0870852 -0.316633 -0.010425
-0.0272273 -0.213961 0.343461
0.014514 -0.279203 0.250046
-0.0559467 -0.309643 -0.0113513
-0.0280791 -0.314543 0.111531
-0.100157 -0.281168 0.105713
0.053137 -0.303451 -0.125522
0.119357 -0.27899 -0.120371
-0.0867765 -0.267045 -0.122408
-0.022213 -0.298672 -0.126428
0.0469307 -0.186303 -0.343479
0.0144535 -0.25425 -0.249135
-0.0195556 -0.181464 -0.341478
0.148499 -0.207339 -0.215766
0.180603 -0.232687 -0.0810767
0.0627634 -0.109657 -0.398273
0.106189 -0.157252 -0.336388
0.190326 -0.0682268 -0.233415
0.157254 -0.112662 -0.29643
0.15329 -0.0436343 -0.331049
0.227631 -0.1711 -0.00448953
0.210488 -0.00812574 -0.156676
0.227209 -0.0791896 -0.0915048
0.25186 -0.0764985 0.092881
0.251686 0.0137 0.169591
0.0933373 -0.0403805 0.453246
0.169233 0.0188008 0.41399
0.0968576 0.0760246 0.459313
-0.143262 -0.214809 0.203355
-0.10402 -0.177084 0.332029
-0.1716 -0.115469 0.288342
-0.0722554 -0.146717 -0.329448
-0.11002 -0.190169 -0.213932
-0.119517 -0.104581 -0.288524
0.113932 -0.0128941 -0.386158
0.0629883 -0.0463468 -0.417295
0.0633197 0.0162521 -0.414528
0.233122 0.0852239 0.112998
0.211787 0.0612608 -0.075175
0.195308 0.141076 0.0396269
-0.112031 0.20703 0.0939386
-0.109782 0.220393 0.153438
-0.090383 0.22777 0.117985
-0.151657 0.186479 0.215208
-0.130714 0.206232 0.186245
-0.15156 0.177819 0.157241
-0.0753473 0.25211 0.225881
-0.105194 0.232425 0.209483
-0.0957268 0.237913 0.259675
-0.191069 0.0455412 0.299173
-0.188231 0.0843286 0.287721
-0.198903 0.0557201 0.25429
-0.147519 0.139556 0.346184
-0.170824 0.112853 0.319624
-0.154218 0.0973198 0.362348
-0.184961 0.124911 0.213426
-0.181159 0.122253 0.26905
-0.169967 0.155486 0.245365
-0.00620194 0.221614 0.388688
-0.0433961 0.210289 0.387676
-0.0198277 0.191763 0.417327
-0.0804606 0.235153 0.310938
-0.0637317 0.225301 0.351296
-0.0455112 0.249621 0.318553
-0.0939531 0.149957 0.405332
-0.0808546 0.191472 0.381377
-0.114591 0.168342 0.368881
-0.1463 0.186831 0.272044
-0.133564 0.180395 0.3243
-0.115426 0.214306 0.294384
-0.0652318 0.243567 0.127814
-0.0741746 0.226616 0.0694733
-0.0437708 0.266084 0.233669
-0.0554056 0.257788 0.183596
-0.0187395 0.247401 0.0758418
-0.0360695 0.255723 0.133373
-0.00529431 0.26251 0.135217
0.0320073 0.222612 0.390008
0.0127885 0.242926 0.35924
0.0523194 0.268426 0.285657
0.0330424 0.258959 0.324482
0.0727887 0.253044 0.320822
-0.00739315 0.257779 0.323637
-0.0261747 0.265863 0.284421
0.102303 0.230609 0.0687737
0.0932654 0.248205 0.128348
0.119845 0.233128 0.118542
0.0308754 0.263732 0.13535
0.0626074 0.2589 0.133744
0.0445994 0.24911 0.0755608
0.10451 0.25829 0.22865
0.0831124 0.262753 0.185041
0.0707891 0.270377 0.235466
-0.00705675 0.274975 0.240436
0.0325606 0.276428 0.241096
0.0126735 0.273769 0.190129
-0.0614483 0.217115 0.00660038
-0.0859132 0.204712 0.00830314
-0.00426279 0.233144 0.00858473
-0.0334879 0.2272 0.00726042
-0.0605974 0.169328 -0.146059
-0.047928 0.199854 -0.0715297
-0.0341662 0.178418 -0.149288
0.114339 0.208213 0.00600668
0.0887832 0.219972 0.00471596
0.0613011 0.179491 -0.152052
0.074933 0.201632 -0.0743191
0.0885137 0.170816 -0.150408
0.0597709 0.229129 0.00604217
0.0298983 0.23388 0.0081306
0.000415376 0.0998934 -0.352786
0.0139252 0.119063 -0.320471
0.0277086 0.100314 -0.353592
-0.0174156 0.155047 -0.223532
-0.00183236 0.137097 -0.276625
-0.0308414 0.132295 -0.272216
0.0591066 0.133365 -0.274925
0.0294935 0.137493 -0.277577
0.0448774 0.155727 -0.225448
0.0129207 0.211428 -0.071542
0.0298062 0.183366 -0.155414
-0.00327921 0.182955 -0.154485
-0.0994159 0.178218 -0.0505443
-0.108666 0.193211 0.0250427
-0.0722451 0.141436 -0.20196
-0.0865351 0.159412 -0.131949
-0.133535 0.133775 -0.0838034
-0.111262 0.147429 -0.110681
-0.120301 0.116795 -0.162522
-0.00773216 0.0781301 -0.380338
-0.0254027 0.0929903 -0.353092
-0.0735722 0.0709813 -0.340103
-0.0506999 0.0827739 -0.349118
-0.0564456 0.056599 -0.373794
-0.0418967 0.108471 -0.314892
-0.0562417 0.123336 -0.267479
-0.146697 0.0115777 -0.241337
-0.132641 0.0277895 -0.271532
-0.13285 0.00146027 -0.287748
-0.127147 0.0834914 -0.211078
-0.130729 0.0555262 -0.245498
-0.145642 0.0687674 -0.180813
-0.0997086 0.0302662 -0.342084
-0.115886 0.0430136 -0.299576
-0.0971788 0.05658 -0.322187
-0.0818028 0.112686 -0.253448
-0.0906104 0.0844675 -0.293847
-0.105819 0.099119 -0.234298
-0.129013 0.18259 0.0549739
-0.15336 0.119599 -0.0486575
-0.143236 0.152588 0.00543787
-0.148898 0.167495 0.0881966
-0.166511 0.147944 0.120255
-0.15813 -0.0102215 -0.214016
-0.161985 0.0178047 -0.184789
-0.190698 0.0326557 -0.0304118
-0.177932 0.024732 -0.112636
-0.18951 -0.00340371 -0.0749776
-0.16279 0.0490883 -0.148699
-0.160304 0.0814758 -0.106273
-0.200458 0.0554177 0.201684
-0.203285 0.0216185 0.222759
-0.18331 0.119547 0.152942
-0.19416 0.0893031 0.178231
-0.205107 0.0108398 0.0926777
-0.201103 0.0507934 0.137336
-0.198772 0.042768 0.0633728
-0.172121 0.0982711 -0.013678
-0.187717 0.0722284 0.0249402
-0.179283 0.111849 0.0771305
0.14112 0.227167 0.155407
0.142521 0.212445 0.0939928
0.126252 0.244301 0.264004
0.136411 0.23956 0.213004
0.186329 0.185155 0.160274
0.165039 0.214986 0.189876
0.186806 0.194587 0.220552
0.0458994 0.193016 0.419709
0.0706118 0.212874 0.391455
0.145726 0.172182 0.376889
0.110145 0.19497 0.387368
0.124548 0.152721 0.413442
0.0920509 0.228788 0.355585
0.109902 0.239883 0.31519
0.243084 0.0548657 0.265583
0.229008 0.0856317 0.299717
0.232547 0.042513 0.312736
0.20745 0.162981 0.252867
0.220513 0.127662 0.278508
0.225817 0.131476 0.220121
0.189618 0.0980738 0.374688
0.207992 0.115863 0.330802
0.181375 0.143414 0.356297
0.146999 0.220419 0.300503
0.165985 0.185951 0.332115
0.180556 0.194147 0.279199
-0.0261612 0.15201 0.443483
0.0127525 0.172047 0.438055
-0.100202 0.103701 0.422799
-0.0658027 0.12822 0.437929
0.0132699 0.0714508 0.475645
-0.0286899 0.10082 0.463029
-0.0279961 0.0464353 0.471209
-0.192947 0.0036585 0.298028
-0.178346 0.0249571 0.336428
-0.132426 -0.0294253 0.397036
-0.158536 -0.00129846 0.370026
-0.155748 -0.0510071 0.361014
-0.158246 0.0495524 0.370204
-0.133539 0.0751072 0.397924
0.0148596 -0.125365 0.428192
-0.0207235 -0.106229 0.434143
-0.0162209 -0.146844 0.409545
-0.0259162 -0.0128473 0.467083
-0.0238347 -0.0610813 0.454125
0.0143861 -0.0372431 0.467294
-0.0907746 -0.106226 0.401238
-0.0593993 -0.0840014 0.431415
-0.0958232 -0.0598338 0.419688
-0.103901 0.0492239 0.43114
[...]
POINT_DATA 642
SCALARS Mean_Curvature double 1
LOOKUP_TABLE default
4.26226
4.11341
5.67852
5.45315
6.14191
7.81055
8.12696
7.01226
4.80521
3.47427
5.11451
3.57666
3.91295
6.00495
7.10874
7.07574
4.3321
3.95969
3.83107
8.68983
3.92846
3.26758
6.27232
3.68943
5.80508
6.75608
3.60031
2.39903
8.64667
7.49772
3.94172
8.85723
1.48068
5.62201
5.37984
5.42338
6.0737
3.35945
5.77959
8.22591
3.05131
2.92507
4.31658
4.40011
4.77655
5.89603
6.94957
3.47628
7.17476
7.13565
7.41389
4.48272
4.27403
7.42267
7.20332
4.3257
4.70632
4.327
4.04402
4.03358
4.0284
4.03872
5.59224
3.87441
5.73519
3.91504
4.05571
8.06611
5.92011
3.91249
5.97212
7.06831
3.92204
3.60552
3.63416
3.51638
2.9757
5.24704
4.13601
7.10341
6.46746
3.69693
5.91766
6.15406
6.68603
7.09447
5.4824
5.77966
6.45557
6.48012
5.9979
2.88442
2.57689
3.67456
3.56261
3.15286
2.83869
2.69922
10.1932
6.45192
9.94179
8.65933
8.36719
8.62922
10.3389
6.18853
8.17429
3.9322
3.95567
7.16474
6.18491
4.06376
4.91378
4.68309
5.17627
5.68688
5.2389
3.9531
5.91262
5.67119
5.90033
5.51121
5.98073
5.85946
5.49508
5.98043
5.43964
5.45221
6.57139
5.93569
5.36736
6.16055
6.80704
6.35621
4.67687
3.03736
2.38927
8.39287
5.91328
3.71718
4.00738
5.65911
2.19275
3.5264
3.43839
2.41039
2.8331
6.30239
5.74281
6.48009
4.95921
5.59499
5.24423
4.38756
3.56468
4.05007
8.60507
9.69144
9.3501
3.33761
3.47227
3.64944
4.33067
4.60951
4.52897
4.05521
4.39567
4.02874
4.88079
4.8764
5.70287
2.88706
4.24064
3.615
6.57354
6.43168
5.89697
3.58939
4.0153
3.66942
8.00718
7.74154
7.63516
7.20798
6.94749
7.14064
7.01986
6.80527
6.46513
4.66992
6.9857
6.8146
4.45525
4.27376
4.70077
4.48221
4.33608
4.51411
4.67755
7.96002
7.55507
7.24519
7.10826
6.98134
7.13039
7.31372
4.20434
4.52713
4.28646
4.63907
4.67685
4.35915
4.90605
4.57199
7.01175
4.68725
7.45203
4.72727
4.10952
4.13107
4.12766
4.13014
4.00339
4.03744
4.02915
4.05383
4.1067
4.04577
4.07213
4.05381
4.1397
4.10866
6.26577
5.59785
6.34285
3.8404
5.06022
4.93114
5.19649
5.08893
3.94212
3.99384
3.9552
3.96956
4.06039
4.16997
3.87773
4.01098
3.94184
4.00323
4.04317
7.40231
6.52058
7.04948
6.82937
8.45113
5.73427
4.99016
4.73803
5.8133
6.06514
3.96352
5.35571
3.8849
8.01978
6.71818
7.20022
4.89247
6.10589
4.65562
4.15851
3.84803
4.01179
4.04503
3.85235
3.71485
3.70054
3.43908
3.61936
3.43236
3.819
3.78563
3.14599
3.12325
3.67266
3.38844
3.24659
3.28083
3.29423
3.6764
3.4921
3.65648
4.36916
4.06568
7.03238
4.33307
3.83065
4.28431
3.35427
7.54319
7.6871
6.09009
7.00458
6.91092
6.73737
6.53038
2.71613
6.04311
6.14448
6.39174
5.58507
3.40331
5.72925
6.18792
6.13083
6.92855
6.36991
6.58182
7.28601
7.4032
6.72285
7.02806
6.79817
6.84517
6.75375
2.71289
6.17272
5.70573
5.85114
5.5764
5.91128
5.71013
6.17065
6.05781
6.11314
6.49883
6.47495
6.23532
5.866
5.86855
5.75623
6.60111
6.01418
6.5727
2.81558
3.29746
3.19116
2.88427
2.4442
2.67628
2.62629
4.39307
3.55392
3.7223
3.61717
3.50888
3.52186
3.26913
2.69535
2.51017
2.7618
2.47696
2.3183
1.93563
3.23808
2.66216
3.47497
3.14953
3.50584
3.04206
7.17315
5.93373
9.4862
8.24124
7.30964
8.51107
9.58539
8.63125
9.13896
9.21465
10.3424
10.0063
10.2563
8.18051
8.36162
9.71709
9.47103
8.77669
9.46673
8.50177
8.16619
9.3459
7.97672
8.11403
8.08569
8.01111
6.70367
7.5502
5.26125
5.98786
8.72795
7.12499
7.42813
4.01487
4.0113
4.06591
4.00721
3.89387
4.04356
3.92348
5.91439
5.91797
4.67185
7.43165
6.9554
8.32186
3.87183
5.43401
4.15454
5.14305
4.94073
6.34296
4.90309
4.85372
5.39255
4.66322
4.53644
4.17484
5.19019
5.0384
5.12099
5.82331
5.13151
3.23522
5.5287
5.32142
5.63771
4.91544
4.6042
4.628
5.99113
5.91948
6.10539
5.51795
5.81627
5.68244
5.70427
5.79712
5.73044
4.83587
5.50923
5.16457
5.56776
5.77768
5.44413
5.35486
6.11199
5.73497
5.81068
6.04186
5.95206
5.33019
5.59321
5.58678
5.70264
5.51305
5.9511
5.60827
5.54271
5.78597
5.61794
6.04767
5.32924
5.29158
5.32933
5.4538
5.42103
5.55533
5.95814
5.81191
6.39155
6.29022
6.05209
6.28054
6.32559
5.51635
5.96881
6.07443
5.90145
5.59461
6.17846
6.33007
7.24012
6.89344
7.35865
6.52366
6.61794
6.66467
3.92939
5.47372
6.50969
6.49259
6.30227
6.24012
5.66708
5.30719
6.08015
5.35347
3.06404
3.46357
2.9761
8.32578
7.21431
7.24781
7.14812
8.25115
6.4878
2.70664
4.23852
4.59366
5.38097
3.46896
3.96049
3.37753
5.46025
4.5176
4.36205
2.89774
3.57618
3.44067
4.96942
2.92767
1.99718
3.77415
1.64881
3.68648
3.42798
3.1349
3.3684
3.28653
3.32495
3.23258
2.56576
2.15865
2.09157
2.21972
2.90605
2.58104
2.82252
3.22628
3.28145
2.39127
6.19368
5.82087
6.00017
6.37319
6.46393
6.04815
5.75633
5.88716
5.8428
5.73716
7.06763
6.68688
6.86452
6.81403
6.45601
6.32081
6.48605
6.39397
4.44851
5.28291
5.186
4.89044
2.07002
5.94838
5.79153
5.9395
5.77585
5.48706
5.10692
2.17937
2.25815
5.5646
5.55871
5.29053
5.28363
4.80707
7.48438
3.54576
3.61131
4.47725
5.01144
2.96437
3.43987
3.14027
3.8225
3.59548
4.71468
5.52658
5.18091
3.85304
3.43673
3.86269
3.63289
4.21528
6.77205
8.99904
7.25354
8.49642
9.03018
9.99847
7.70075
10.2896
10.2101
9.38587
9.26578
9.51605
8.67809
10.2113
9.17378
7.94535
8.08505
8.48104
2.89582
3.06643
3.21757
3.41346
3.48503
3.66182
3.71821
3.76615
3.51172
3.19818
3.94323
3.63299
3.80714
3.80366
3.72338
3.26611
3.48373
3.43888
SCALARS CoVolArea double 1
LOOKUP_TABLE default
0.00175721
0.00184189
0.00203501
0.00203908
0.0017323
0.00195572
0.00144113
0.00134309
0.00152727
0.0019393
0.00144816
0.00166278
0.00302712
0.00333709
0.00277016
0.00292656
0.00333031
0.00326285
0.00322873
0.00227192
0.00350739
0.00415485
0.00358984
0.00333484
0.00338189
0.00397732
0.00373949
0.00409568
0.00186638
0.00227903
0.00357111
0.00221487
0.00449625
0.00345973
0.00407549
0.00400169
0.00323712
0.00350479
0.00364388
0.00244585
0.00413813
0.00456745
0.00279021
0.00293935
0.00251339
0.00276578
0.00310568
0.00272925
0.00277176
0.003204
0.00333506
0.00286403
0.00293317
0.00287488
0.00292074
0.00304853
0.00296425
0.00267067
0.00409058
0.00348301
0.00359467
0.00415941
0.00252317
0.00358836
0.00254515
0.00331124
0.00339836
0.00212777
0.00267453
0.00266344
0.00271984
0.00218608
0.00382858
0.00319611
0.00405298
0.00371515
0.00320835
0.00315278
0.00296745
0.00348375
0.00334377
0.00323623
0.00343531
0.00316087
0.0040324
0.00403614
0.00295696
0.00347767
0.00296419
0.00355461
0.00302658
0.00433827
0.00323725
0.00274248
0.00427678
0.00372811
0.00444773
0.00363077
0.00226451
0.0022051
0.00200367
0.00207032
0.00216831
0.00202287
0.00195371
0.00263871
0.00212507
0.00353058
0.0032971
0.00220257
0.00266131
0.00272915
0.00389997
0.0044687
0.00363867
0.00318715
0.00411138
0.00367149
0.00334364
0.00399872
0.00304151
0.00393235
0.00311173
0.00333469
0.00412407
0.00311128
0.00390552
0.00356455
0.00333903
0.00330408
0.00330472
0.00338622
0.00304889
0.00363493
0.00290782
0.0040038
0.00378516
0.00233378
0.00328408
0.00301301
0.0031717
0.00232407
0.00479057
0.00346117
0.004663
0.00479028
0.00373168
0.00358294
0.00361196
0.00422593
0.00423228
0.00386949
0.00382986
0.00293413
0.0036524
0.00285022
0.00230675
0.00213573
0.00208556
0.00415433
0.00433036
0.00408386
0.00242733
0.00256188
0.00228305
0.00296945
0.00271069
0.0028791
0.00256487
0.00261512
0.00286347
0.00232928
0.00264472
0.00233071
0.00320563
0.00285415
0.00299972
0.0028559
0.00280234
0.0030111
0.00255969
0.00298471
0.00287196
0.00298051
0.00291207
0.00272264
0.00332186
0.00314463
0.00331763
0.00330919
0.0034462
0.00331098
0.00259763
0.00248705
0.00277278
0.00259337
0.00310244
0.00276929
0.00304532
0.00260056
0.00274468
0.00294447
0.00278647
0.00286485
0.00272725
0.00284224
0.00260229
0.00273186
0.0024083
0.00308905
0.00287835
0.00317403
0.00273398
0.00273888
0.00291576
0.00310416
0.00316609
0.00318108
0.0032441
0.0027938
0.00381033
0.00347163
0.003436
0.00368105
0.00380706
0.00291431
0.00336715
0.00387665
0.00378414
0.0034977
0.00356816
0.00384713
0.00203484
0.00254674
0.00204518
0.0034518
0.00290111
0.00279042
0.00281763
0.00291961
0.00349309
0.00450962
0.00435276
0.00431827
0.00336599
0.00273016
0.0032383
0.00340906
0.00355524
0.00344372
0.00339103
0.00187925
0.00226066
0.00245679
0.00230533
0.0021503
0.00250972
0.0029153
0.00214638
0.00231402
0.00194492
0.00305607
0.00259369
0.00300651
0.00220115
0.00234783
0.0024759
0.00318085
0.00290489
0.00323133
0.00306586
0.00395474
0.00353623
0.00318347
0.00338491
0.00233679
0.00285843
0.00417731
0.00353447
0.00379752
0.00324291
0.00380137
0.00285375
0.00250289
0.0033345
0.00303738
0.0036987
0.00334398
0.00403203
0.00440736
0.0044449
0.00410144
0.00272416
0.00255869
0.00304507
0.00279793
0.00310266
0.00290795
0.00322986
0.00294314
0.00309632
0.0035002
0.00327954
0.00351275
0.00305347
0.00313965
0.00278734
0.00311757
0.00269463
0.00334954
0.00323193
0.00325775
0.00334605
0.00326268
0.00350706
0.00349575
0.00366754
0.00357367
0.00368269
0.00317651
0.00368138
0.00368868
0.00414056
0.00404439
0.00414984
0.00243656
0.002788
0.00341516
0.00307211
0.00316157
0.00302613
0.00345533
0.00244422
0.00289053
0.00251865
0.00376851
0.00317687
0.00335482
0.00319723
0.00312532
0.00342896
0.00401486
0.00387724
0.00415165
0.00315418
0.00254197
0.00430217
0.00366827
0.00365932
0.00364946
0.00423694
0.00217064
0.00291206
0.00403289
0.00338276
0.00317558
0.00361452
0.00432202
0.00304933
0.00362443
0.00300665
0.00435273
0.00397904
0.00396132
0.00377261
0.0039398
0.00424617
0.0048977
0.00484397
0.00488098
0.00213918
0.00195491
0.00225076
0.00217737
0.00221847
0.0021883
0.00225013
0.00182714
0.00203064
0.00194018
0.00196842
0.00188142
0.00205628
0.00218878
0.00195875
0.00199142
0.00184748
0.00215504
0.00199952
0.00216042
0.00184478
0.00189935
0.001915
0.00231607
0.00215393
0.00230318
0.00227345
0.00188969
0.00291309
0.00251625
0.00211368
0.00228659
0.00239417
0.00285918
0.00348535
0.00338981
0.00350101
0.00364798
0.00346257
0.0032417
0.002008
0.00233849
0.0022334
0.00240631
0.00231488
0.00216961
0.00305607
0.00258194
0.00303397
0.00314068
0.00317891
0.00283489
0.00312253
0.00369794
0.00298719
0.00451175
0.00410904
0.00425226
0.00388482
0.00399489
0.00429955
0.00273019
0.00332586
0.00291224
0.00376324
0.00350177
0.00330346
0.0040916
0.00378916
0.00437841
0.00264415
0.00312013
0.00251341
0.00412625
0.00355707
0.00370474
0.00322985
0.00337834
0.00372812
0.00475242
0.00442698
0.00467079
0.00330806
0.00277103
0.00411368
0.00368432
0.00310609
0.00338035
0.00355664
0.00263802
0.0032439
0.00409082
0.00364796
0.0036955
0.00363484
0.00409294
0.00278443
0.00328223
0.00295457
0.00355709
0.00336026
0.00312253
0.00378878
0.00362418
0.00405613
0.00446848
0.00445602
0.00422396
0.00308077
0.0028464
0.00322563
0.0030919
0.0034361
0.00321842
0.00351701
0.00285436
0.00310921
0.00352342
0.00325321
0.00338993
0.00312179
0.00325562
0.00233356
0.00298197
0.00227462
0.00363411
0.0033703
0.00338807
0.00320704
0.00331396
0.00358264
0.00359554
0.00377783
0.00376175
0.00348843
0.00306417
0.00384763
0.00365367
0.00405175
0.00385217
0.00406454
0.00204075
0.00264284
0.00282016
0.00269533
0.0023448
0.00310008
0.00364209
0.00233767
0.00253501
0.00206225
0.00366383
0.00296539
0.00353898
0.00234846
0.00258791
0.00277603
0.0039715
0.00347938
0.00396028
0.0037759
0.00459734
0.00417566
0.00424433
0.00473614
0.00250204
0.0031827
0.00469746
0.00394874
0.00412609
0.00373921
0.00444675
0.00363814
0.00294773
0.00467839
0.00412585
0.00418067
0.00416045
0.00474826
0.00525498
0.00531689
0.00530875
0.0028791
0.00344329
0.00313249
0.00319403
0.00381586
0.00308105
0.00370226
0.00331658
0.00325176
0.00348103
0.00379339
0.00424488
0.00417395
0.00389267
0.00391835
0.00391367
0.00416732
0.00424329
0.00357712
0.00413826
0.00384665
0.00389964
0.00419092
0.00308643
0.00361153
0.00331789
0.00351208
0.00401531
0.00299855
0.00399847
0.00342916
0.00326189
0.00358779
0.00444566
0.00420304
0.00444675
0.00246778
0.00333132
0.00283447
0.00244887
0.00254747
0.00340928
0.003677
0.00362826
0.0035103
0.00358888
0.00234945
0.00253251
0.00238819
0.00268636
0.00327379
0.00356052
0.00353101
0.00310209
0.00220621
0.00234244
0.00225554
0.00220016
0.00224057
0.0020798
0.00196778
0.00198076
0.00214162
0.00228233
0.0020387
0.00216748
0.00205068
0.00198003
0.00196096
0.00238411
0.00221484
0.00234261
0.00339166
0.00447856
0.00385435
0.00351869
0.00371072
0.00302482
0.00397275
0.00339851
0.00379351
0.00453693
0.00322842
0.00366804
0.00338983
0.00371222
0.0041393
0.00483266
0.00470328
0.0044601
SCALARS SignedDistance double 1
LOOKUP_TABLE default
1.05662
1.05191
1.05798
1.0872
1.16109
1.1777
1.07584
1.07375
1.12225
1.06203
1.1474
1.01672
1.00213
1.12055
1.04007
1.04567
1.06502
1.21516
1.21478
1.06948
1.15366
1.04714
1.16144
1.00314
1.10329
1.16017
1.06779
1.00348
1.0453
1.01363
1.14532
1.0571
1.02292
1.13323
1.11161
1.08966
1.12652
1.01722
1.04356
1.01435
1.02562
1.03513
1.01948
1.01967
1.00002
1.05462
1.04381
1.00978
1.12881
1.09952
1.17264
1.00368
1.05467
1.14527
1.0609
1.05806
1.00463
1
1.13815
1.13002
1.12633
1.14032
1.16033
1.225
1.15841
1.19186
1.10414
1.06371
1.1598
1.17592
1.18185
1.11081
1.06027
1.12223
1.09811
1.02894
1.00001
1.0238
1.01882
1.1762
1.11363
1.01875
1.06623
1.09714
1.18346
1.13763
1.04072
1.12875
1.20284
1.18363
1.14819
1.00106
1.01802
1.12384
1.05773
1.02705
1
1
1.01935
1.07671
1.0002
1.00088
1.04642
1.0398
1.09503
1.14798
1.04942
1.09633
1.18798
1.08881
1.16583
1.16127
1.03915
1.05649
1.09535
1.09953
1.0723
1.03856
1.1293
1.10571
1.15994
1.12531
1.11883
1.12065
1.12276
1.09764
1.10966
1.06481
1.13003
1.07935
1.02555
1.09144
1.05884
1.05163
1.02937
1.01862
1.01894
1.07552
1.02379
1.09562
1.02081
1.03513
1.00077
1.0976
1.03487
1
1.00106
1.19453
1.15532
1.16545
1.04149
1.10215
1.05359
1.00512
1.02802
1.06192
1
1.06199
1.00009
1.01896
1.08649
1.05307
1.03774
1.01406
1.0302
1.00894
1.00147
1.00102
1.00975
1.00035
1.03204
1.0286
1.02567
1.01487
1.07384
1.04242
1.08146
1.00128
1.02558
1.01329
1.16863
1.16466
1.17399
1.07157
1.1179
1.08338
1.158
1.14281
1.10833
1.0303
1.07053
1.05119
1.03432
1.05647
1.01244
1.00079
1.06173
1.03374
1.03442
1.17406
1.14401
1.06559
1.10569
1.09598
1.09036
1.0452
1.05085
1.03573
1.02943
1.03483
1.03478
1.0637
1.01029
1.00222
1.02221
1.01642
1.02784
1.00473
1.08925
1.08875
1.09788
1.09216
1.1754
1.13145
1.18044
1.08326
1.08566
1.1833
1.13462
1.17388
1.09518
1.09902
1.1111
1.15951
1.1109
1.22404
1.21032
1.21069
1.20728
1.21022
1.22417
1.14248
1.18791
1.18836
1.11974
1.07555
1.20469
1.16517
1.13223
1.15049
1.17443
1.06132
1.1091
1.11114
1.1086
1.06228
1.15953
1.20932
1.16779
1.16243
1.13304
1.19264
1.18715
1.16817
1.08951
1.14364
1.12633
1.20744
1.16872
1.20727
1.0499
1.10816
1.0819
1.02106
1.00934
1.15292
1.14998
1.06557
1.11035
1.07934
1.14085
1.12833
1.00423
1.00711
1.01257
1.00046
1.01759
1.01442
1.04158
1.08196
1.0537
1.0379
1.00895
1.03356
1.03795
1.00056
1.00337
1.00036
1.01477
1.17283
1.17343
1.14313
1.16198
1.17919
1.12999
1.08008
1.05011
1.06537
1.07615
1.01826
1.04507
1.00497
1.12637
1.08989
1.11529
1.06222
1.08904
1.042
1.15834
1.15607
1.17044
1.17463
1.1492
1.16092
1.16554
1.02723
1.06048
1.11342
1.08515
1.0692
1.09501
1.13276
1.18346
1.18073
1.1579
1.1731
1.19559
1.18279
1.13161
1.16842
1.14711
1.176
1.16234
1.18257
1.00569
1.01507
1.01936
1.0001
1.02162
1.00898
1.00255
1.1397
1.13265
1.06801
1.10452
1.09861
1.0966
1.05559
1.04914
1.02292
1.0221
1
1.00545
1.00671
1.01542
1.00213
1.01862
1.03672
1.01848
1.01238
1.08925
1.11599
1.03406
1.05963
1.04674
1.04727
1.0178
1.02619
1.01778
1.01634
1.00082
1.01237
1.02118
1.02035
1.06478
1.07739
1.09027
1.01099
1.0452
1.01629
1.07928
1.0771
1.05533
1.00046
1.02051
1.00475
1.10266
1.06104
1.19955
1.15129
1.04911
1.09466
1.09885
1.07162
1.11473
1.16874
1.1454
1.1214
1.16299
1.20232
1.10884
1.1417
1.14396
1.10982
1.12535
1.0695
1.15934
1.16994
1.18311
1.19876
1.19508
1.15519
1.06593
1.0696
1.08882
1.0224
1.04537
1.01637
1.09774
1.07683
1.08617
1.07841
1.07523
1.05556
1.10069
1.09131
1.12054
1.0273
1.05326
1.0436
1.14548
1.14077
1.16645
1.1066
1.11889
1.11987
1.14602
1.12571
1.10944
1.06229
1.08763
1.08434
1.10799
1.1058
1.11005
1.11609
1.12443
1.11879
1.12125
1.14003
1.13173
1.10848
1.12054
1.10208
1.12944
1.12335
1.0753
1.07996
1.06555
1.11603
1.1011
1.11202
1.07659
1.08658
1.09444
1.11909
1.10963
1.12523
1.10698
1.08636
1.1385
1.12898
1.07211
1.10751
1.09648
1.03666
1.0672
1.04723
1.05658
1.0184
1.09809
1.12027
1.06811
1.04817
1.05322
1.06076
1.04982
1.04097
1.01627
1.02272
1.02782
1.12504
1.07777
1.09901
1.05132
1.06395
1.02194
1.04463
1.003
1.01479
1.00081
1.0827
1.07071
1.01648
1.04945
1.0556
1.04995
1.01911
1.11027
1.07495
1.08581
1.02408
1.05841
1.05991
1.00067
1.02917
1.0034
1.00613
1.00061
1.00152
1.03975
1.00955
1.00888
1.01633
1.00103
1.12957
1.10524
1.02896
1.06478
1.05391
1.07626
1.04292
1.01319
1.0303
1.00501
1.01384
1.01555
1.00177
1.02485
1
1.01478
1.0012
1.19267
1.1738
1.18584
1.20091
1.17029
1.09781
1.15908
1.12375
1.12498
1.15201
1.14696
1.15742
1.14269
1.15581
1.17817
1.1876
1.18452
1.17911
1.04741
1.07009
1.05602
1.03075
1.01629
1.13184
1.1057
1.12166
1.11081
1.08905
1.02615
1.03645
1.03406
1.04538
1.07396
1.0733
1.08199
1.0551
1.03969
1.01297
1.01942
1.02104
1.00537
1.01147
1.05282
1.00142
1.00375
1.00198
1.10832
1.04106
1.06942
1.09417
1.0785
1.01458
1.04999
1.02956
1.05953
1.00097
1.01025
1.03537
1.01766
1.10266
1.06267
1.09335
1.07772
1.04116
1.01541
1.01917
1.015
1.0039
1.02094
1.01788
1.02829
1.0009
1.01026
1.03565
1.01026
1.0006
1.00588
1.13297
1.1166
1.12883
1.09339
1.05479
1.04623
1.0132
1.0182
1.07126
1.09313
1.05237
1.06441
1.02663
