# vtk DataFile Version 4.2
vtk output
ASCII
DATASET POLYDATA
POINTS 642 double
-112.254 210.94 63.7203
119.078 213.136 62.083
-101.573 -211.962 -3.17188
113.607 -218.482 -5.3944
2.3934 -142.265 273.095
0.0282409 171.575 245.642
-0.475899 -143.805 -273.113
-2.65399 136.801 -272.083
200.123 -0.450601 -193.373
212.676 3.78803 180.636
-189.963 -2.81168 -192.07
-210.41 23.5271 177.745
-193.28 140.594 127.72
-148.842 91.877 250.825
-85.6947 246.086 159.282
89.8058 245.888 160.27
0.177437 249.142 60.782
87.0653 167.349 -183.351
-74.6773 169.018 -180.01
-141.324 84.2172 -266.465
-163.43 101.675 -129.411
-188.533 -5.33646 24.5238
150.052 97.4917 250.372
202.928 143.979 128.121
-134.592 -80.827 253.764
0.391427 -18.068 308.627
-167.032 -106.273 -129.124
-168.238 -112.642 101.388
-1.43721 1.31668 -327.509
-145.404 -90.6544 -267.42
174.003 106.835 -139.651
151.704 90.2214 -270.375
181.386 -116.033 100.476
144.195 -80.7385 259.193
74.0643 -201.248 145.336
-68.0313 -197.92 144.872
2.8075 -269.877 -5.66132
-64.3205 -197.951 -157.083
73.5609 -206.06 -143.675
151.817 -90.3516 -270.274
163.304 -105.314 -121.982
201.814 -2.63158 23.6131
-157.317 183.241 97.0505
-156.824 200.547 140.491
-105.821 238.006 114.191
-198.543 51.0438 214.706
-190.169 122.88 183.907
-212.775 73.5842 161.11
-46.2288 218.032 216.508
-121.941 179.086 212.673
-84.9493 133.553 257.963
-42.2917 266.61 113.938
-60.5406 240.558 64.3135
48.172 217.514 216.513
-0.0690519 259.453 167.898
65.8586 239.669 62.1205
43.3435 266.014 113.8
112.853 239.298 112.286
-14.6277 191.458 -49.3557
-81.008 144.064 -68.1703
84.8527 152.13 -74.2145
20.3188 194.025 -47.948
-50.95 165.426 -226.274
-2.16615 174.595 -176.165
58.1003 164.971 -225.429
-130.328 139.477 -160.8
-152.358 154.456 -21.8568
-78.4526 119.078 -283.195
-111.652 145.812 -225.102
-187.714 55.3944 -157.056
-164.038 98.5262 -201.948
-183.313 39.0111 -229.419
-173.532 128.798 59.5772
-196.481 -2.50065 -114.612
-192.953 63.5847 -74.5963
-200.647 78.1551 94.7127
-206.597 18.9696 120.401
164.806 202.424 142.202
166.684 186.754 94.8752
89.1639 135.138 257.87
128.884 180.93 215.708
213.11 90.4158 150.121
195.982 131.78 185.361
196.441 47.3011 216.928
-86.6951 41.1091 287.037
-0.128327 74.8398 280.427
-186.025 -33.6774 216.338
-152.198 1.69774 264.787
2.40165 -85.0554 310.653
-78.3035 -51.301 299.644
-69.7459 -118.551 272.389
-189.413 -49.1888 75.2936
-192.447 -45.2093 156.821
-188.247 -63.741 -167.239
-181.021 -46.9766 -77.5707
-141.178 -169.574 47.4007
-165.428 -127.76 4.81761
-136.69 -170.256 -42.1091
-153.95 -1.25132 -283.901
-185.393 -45.5939 -229.602
-3.51144 79.3808 -316.013
-84.1394 49.1096 -319.051
-82.0537 -125.623 -284.131
-85.8881 -48.9223 -316.533
-1.33811 -81.9717 -313.226
122.898 151.493 -227.569
88.2209 121.303 -282.326
163.718 157.13 -24.8127
142.009 142.886 -169.753
195.832 50.2621 -230.705
180.404 105.897 -205.151
197.653 64.15 -169.526
151.429 -175.73 42.7086
135.946 -167.688 126.661
99.3726 -216.688 67.8086
193.635 -38.0883 222.891
172.599 -94.7798 194.567
202.517 -48.3462 157.157
38.1816 -172.96 219.635
110.547 -144.003 218.299
72.7557 -118.379 274.113
35.1238 -243.111 58.3283
57.12 -255.064 -7.70186
-35.5856 -170.887 219.821
2.70651 -212.852 154.662
-47.6234 -252.232 -6.37232
-28.8782 -240.891 58.2108
-91.5036 -211.964 68.8276
37.1174 -255.71 -72.9228
94.3057 -228.6 -70.3614
-83.4352 -221.723 -71.5675
-28.9603 -253.656 -72.8494
51.6362 -170.465 -233.221
1.56463 -227.89 -136.849
-57.8252 -172.479 -230.9
127.876 -159.571 -147.002
147.402 -179.809 -40.1533
84.0026 -122.972 -282.821
123.994 -153.315 -227.986
196.584 -60.9845 -178.448
180.966 -104.573 -209.377
196.273 -51.1816 -230.321
176.836 -136.3 2.654
207.108 0.296937 -116.768
193.975 -46.9332 -68.368
203.133 -58.8476 72.0665
217.024 10.7029 110.699
84.4935 -50.3895 301.845
156.373 -5.6429 271.235
90.7625 37.4768 289.059
-128.191 -161.71 127.472
-104.652 -142.121 217.152
-165.04 -93.9667 189.799
-118.084 -154.852 -228.297
-131.585 -145.466 -157.317
-170.911 -105.736 -203.889
158.092 0.00774717 -280.75
88.1801 -52.1799 -315.423
87.817 52.2871 -315.338
210.244 80.137 91.3792
197.647 64.5902 -73.7471
181.96 134.353 56.7226
-134.608 199.622 77.4276
-134.724 212.463 107.88
-110.073 225.982 87.7692
-180.085 169.682 133.458
-159.182 192.264 125.223
-177.783 162.59 117.344
-99.2968 246.557 132.699
-132.06 221.903 129.279
-124.698 227.434 149.729
-212.312 34.3305 191.897
-216.122 62.7154 181.806
-216.63 49.0819 170.897
-171.83 108.617 220.595
-196.33 85.394 202.437
-175.884 70.929 236.225
-202.972 110.702 142.295
-208.165 97.7913 167.18
-198.409 135.272 148.662
-23.6802 196.702 235.448
-65.2646 180.374 237.231
-43.5665 154.556 250.757
-103.909 216.783 187.684
-85.7646 201.735 215.355
-66.3273 234.403 191.03
-117.89 113.019 258.258
-104.65 158.165 238.625
-137.584 136.207 234.563
-176.732 166.354 160.741
-159.304 152.714 201.312
-142.655 194.25 175.406
-82.3929 243.712 89.4422
-88.2369 227.569 63.9811
-64.2444 263.645 133.011
-73.4177 256.01 115.141
-31.9532 247.438 62.9406
-51.2751 256.081 91.1722
-21.7891 260.899 90.592
24.4942 196.561 235.486
-0.026144 221.201 217.796
46.1318 256.763 166.429
24.5257 242.57 194.735
69.6288 234.055 191.344
-24.175 242.601 194.743
-45.026 257.169 166.22
95.2332 227.452 60.9416
89.0385 243.719 88.3465
117.791 227.349 86.757
21.4136 260.884 90.085
54.4873 255.316 90.3527
33.3093 247.107 61.1407
104.806 247.489 132.273
78.574 255.74 113.98
66.8346 262.898 132.907
-24.0537 272.458 136.169
23.8735 272.182 136.322
-0.469228 268.82 114.764
-73.418 217.73 38.2061
-98.9371 202.367 37.1609
-14.6163 230.274 28.0421
-40.7511 227.934 34.7523
-80.0266 164.876 -162.498
-35.2557 179.063 -62.2239
-50.0727 176.729 -148.391
100.325 205.076 30.6326
83.0538 214.899 32.187
59.934 176.813 -146.268
56.2932 172.141 -58.6127
93.0759 166.893 -157.993
44.9578 227.714 32.4453
17.0129 230.663 26.6781
-28.6863 154.624 -249.501
-0.887995 165.319 -226.468
28.896 154.872 -247.926
-47.2427 174.307 -177.107
-29.3508 168.84 -203.999
-65.9644 168.244 -203.001
77.0114 166.84 -206.819
30.0904 167.826 -205.559
52.9463 170.572 -179.575
2.29685 194.604 -46.2764
22.0288 182.148 -131.589
-22.4225 180.894 -133.562
-138.232 141.626 -37.0498
-131.405 180.284 40.9367
-104.091 156.558 -175.992
-117.101 145.697 -149.828
-152.101 138.562 -91.9798
-150.691 134.788 -114.035
-148.219 125.401 -138.764
-43.445 129.352 -279.931
-65.8202 148.726 -255.07
-128.784 119.34 -248.149
-98.5998 136.247 -254.689
-110.849 103.566 -278.735
-82.0561 159.752 -227.36
-92.5692 160.634 -202.409
-190.45 30.2131 -176.882
-185.02 49.8903 -199.7
-188.283 17.2885 -212.377
-164.769 100.317 -167.28
-176.482 77.0686 -184.784
-180.787 75.4615 -141.086
-166.779 62.7039 -248.754
-175.369 72.5882 -217.075
-159.56 94.7192 -232.74
-122.551 145.421 -193.748
-142.111 124.286 -214.459
-146.665 124.777 -181.703
-149.028 170.192 52.5495
-141.004 114.688 -42.33
-152.414 161.602 16.5353
-167.735 157.673 78.7301
-185.621 137.621 100.293
-194.344 -2.03523 -147.403
-196.715 31.7226 -129.995
-177.93 42.0144 -34.932
-192.603 33.8271 -107.154
-185.989 -20.5692 -79.4017
-191.812 53.7849 -113.562
-190.243 59.2442 -97.1418
-211.693 51.7438 156.007
-209.459 28.0239 160.986
-198.737 111.857 116.658
-206.443 79.4665 136.972
-203.182 10.208 81.5755
-206.12 46.8494 110.746
-199.207 40.1008 70.3
-192.217 80.9382 -1.92858
-187.037 82.7015 30.2427
-190.071 103.783 74.5732
143.017 215.09 105.509
143.462 202.308 77.1525
130.513 227.836 151.443
139.423 224.41 127.628
186.986 166.723 114.014
168.076 195.57 122.231
189.332 172.829 134.284
45.8847 154.618 250.551
69.6784 180.102 237.905
142.448 141.71 236.427
110.397 160.268 240.759
120.583 117.918 258.884
91.3847 201.394 216.822
110.018 216.857 189.723
212.213 43.2817 168.195
210.881 69.9371 182.667
209.581 21.9344 196.314
207.311 141.326 150.166
211.056 111.621 165.35
212.019 120.22 138.393
175.995 73.3269 235.765
197.108 95.0352 202.063
175.552 117.197 220.924
150.339 195.812 179.249
166.478 157.877 204.313
185.138 169.861 164.709
-50.1372 107.714 269.287
-0.0458713 126.966 262.61
-121.238 72.2159 273.372
-90.9564 89.1039 274.295
-0.299927 24.0876 298.529
-48.7731 54.4242 285.44
-44.3411 9.62989 300.895
-201.545 -6.36673 194.497
-193.785 9.17748 216.506
-145.311 -41.0638 262.753
-171.101 -17.7898 243.755
-162.605 -57.0286 236.221
-174.426 29.2954 241.953
-154.443 49.0866 260.848
2.33669 -117.534 294.377
-31.2709 -103.406 294.205
-28.416 -132.404 274.481
-37.1035 -35.8043 307.086
-32.5774 -69.6486 306.296
1.66696 -55.2244 316.801
-103.832 -101.616 266.107
-75.2771 -86.6276 290.028
-109.106 -67.7979 280.831
-121.137 21.7266 281.481
-116.66 -25.8521 286.712
-83.2251 -7.72981 300.765
-203.002 -12.5856 137.343
-201.901 -11.3633 171.05
-191.799 -19.3977 55.6254
-202.748 -16.1639 96.3007
-181.131 -76.7658 133.331
-194.878 -46.4874 114.05
-180.588 -83.7124 88.2669
-190.707 -39.0159 -179.127
-195.925 -33.6675 -135.176
-173.141 -85.9911 -107.858
-189.651 -54.1004 -132.514
-180.001 -84.3778 -155.341
-194.426 -24.1831 -104.284
-189.744 -27.169 -33.3167
-124.015 -189.271 23.1559
-140.65 -170.683 3.11992
-120.341 -193.082 -21.3756
-167.641 -123.509 53.9987
-155.239 -148.067 27.9688
-155.603 -143.811 71.0691
-152.896 -135.849 -82.8441
-154.441 -148.411 -19.4941
-163.91 -119.519 -54.7298
-185.557 -56.8905 9.12557
-173.833 -96.4732 -27.7322
-175.658 -94.5803 36.4199
-186.913 -2.43589 -234.221
-188.288 -23.9289 -212.422
-149.749 42.7142 -278.366
-171.883 19.5438 -256.863
-170.804 -68.7821 -249.156
-173.586 -23.5593 -257.1
-151.313 -45.6216 -277.864
-3.31243 111.268 -296.355
-45.7332 100.206 -304.22
-48.3051 27.0302 -327.522
-47.0021 65.4398 -321.398
-2.43816 44.2997 -326.768
-82.8447 86.1273 -305.126
-115.262 68.9432 -297.073
-45.5223 -135.99 -280.4
-47.6721 -105.371 -302.482
-0.776981 -117.131 -295.466
-118.015 -72.6372 -296.744
-85.896 -91.0386 -304.064
-114.686 -109.957 -279.884
-1.39588 -42.428 -325.055
-47.8387 -65.8245 -318.165
-48.4705 -24.3776 -327.261
-121.683 23.0257 -305.421
[...]
POINT_DATA 642
SCALARS Mean_Curvature double 1
LOOKUP_TABLE default
0.00735656
0.00719638
0.00694534
0.00884018
0.0206275
0.00203783
0.00640423
0.00601673
-0.00189355
0.0131594
0.000462357
0.0121305
0.0145567
0.00959695
0.0119701
0.0111684
0.006749
0.00740831
0.016769
0.0103172
-0.00384414
-0.0039955
0.00841064
0.0126693
0.0100696
0.00511973
0.00730738
0.00520338
0.00176311
0.011047
-0.00523448
0.0121417
0.00737942
0.0112249
0.00679314
0.00672622
0.0298622
0.00477254
0.0108809
0.0115558
-0.00315497
-0.00151457
0.00639564
0.0264437
0.00781955
0.013264
0.00814485
0.0161931
0.0108669
0.00800297
0.00882164
0.0154247
0.00905004
0.00912742
0.00646555
0.00719792
0.0129991
0.010087
0.0095969
-0.0146371
-0.0115976
0.0113526
0.0162228
0.00203708
0.0145595
0.0136802
0.12445
0.0120141
0.0152325
0.00705498
0.00976177
0.0181307
-0.00617605
0.0127456
0.0665091
0.00542018
0.00372605
0.0198178
0.00779715
0.0070656
0.00924074
0.00269207
0.0113805
0.00696107
0.00468561
0.000799203
0.0147179
0.0110732
0.0186363
0.0116453
0.0104249
0.00108475
0.00315156
0.00994083
-0.00808931
0.00931018
0.00663122
0.00435228
0.0135629
0.0172059
0.00837483
0.0127978
0.0130167
0.00865064
0.00518068
0.0188206
0.0121353
-0.0135753
0.00729397
0.0212238
0.0175376
0.00708819
0.00731764
0.00617619
0.00806859
0.0158634
0.00630737
0.00310806
0.00440065
0.00728446
0.00835805
0.00308531
0.0141664
0.00445555
0.0113887
0.0151653
0.00186647
0.00904208
0.0138336
0.0122014
0.00929838
0.0148683
0.0121246
0.00765275
0.0095948
0.00194332
0.00696502
0.00834077
0.0193114
0.00816565
0.0264746
0.0215798
0.00895571
0.013366
0.00188588
0.0061608
0.0117032
0.0102391
0.0111892
0.00405383
0.00581173
0.00817283
0.0104659
0.0207028
0.00203136
0.0143754
0.00607066
0.0106812
0.00991276
0.00441023
-0.0129778
-0.00498465
0.00789169
0.00584463
0.0100251
0.0285913
0.00387028
0.00141924
0.0230275
0.0155792
0.0186553
0.0270745
0.0304312
0.03634
0.00768799
0.00772611
0.0112259
0.00575745
0.0217987
0.0248277
0.0115121
0.008205
0.00129231
0.00811083
0.00924735
0.00955721
0.00977052
0.00855843
0.00916611
0.0122242
0.00775186
0.00712316
0.0106214
0.00902448
0.0241515
0.00906503
0.00875011
0.00897774
0.00782343
0.011115
0.00751375
0.0103733
0.0108922
0.00851615
0.0110964
0.0112901
0.0091346
0.0100512
0.00957594
0.0078712
0.00658871
0.00799981
0.0218779
0.0101347
0.0207053
0.024161
0.0236479
0.00704334
0.00282659
0.0021243
0.00545858
0.00283671
0.00212382
-0.00100027
0.0164952
0.00401884
0.00430818
0.0115289
-0.00568297
0.00849662
0.001582
0.00706168
0.008675
0.0128396
0.00809492
0.00774246
-0.00153673
0.0100027
0.00628102
-0.00087542
-0.00184734
0.0028061
0.00349697
0.00294126
-0.0165026
-0.00488499
0.0130423
0.00094121
0.0482133
0.0323389
-0.0108055
0.00789999
0.0138247
0.0131821
0.012402
0.0109092
0.0189096
0.0116575
0.00458304
0.00832384
0.00611731
0.00458276
0.00538556
0.00905183
0.0131427
0.0135347
0.016456
0.01299
0.0131983
0.0103787
-0.00348222
-0.021856
0.0144347
0.00922403
0.00603052
0.000391867
0.0164767
-0.0118081
-0.00151445
-0.0181495
0.0277939
-0.0147373
4.63984e-05
-0.00178826
0.00670012
-0.00106131
0.0103289
0.00478105
0.00228433
0.036737
-0.0231015
0.0129314
0.00779368
0.00778242
0.0143957
0.0177539
0.00574999
0.00955207
0.0220801
0.00046515
0.00755368
0.011052
0.0104595
0.0118569
0.00875825
0.00831958
0.000744153
0.015997
0.0136374
0.0255347
0.0183226
0.0185754
0.00738532
0.00860297
0.00977371
0.00832966
0.0102246
0.0133838
0.00216191
0.00133745
0.0124875
0.00736962
0.00410496
-0.00027677
0.00550006
0.0173217
0.00777049
0.00964185
0.0109036
0.0088966
0.0048863
0.0128718
0.0182813
0.00784004
0.00785049
0.00432937
0.00786803
0.0224707
0.011632
0.0114409
0.0108358
0.00747809
0.0111625
0.0135013
0.00467073
0.00312996
0.000724141
0.0117106
0.00265244
0.00734674
0.00388972
0.00230966
0.0161557
-0.00131104
0.00579817
0.00562583
0.0376857
0.0233784
0.00421425
0.00681241
0.00595667
0.00858892
0.00455931
0.00658955
0.00314984
0.00804306
0.0043526
0.00262213
0.00315042
0.000155373
0.0211859
0.00210788
0.00982791
0.00829681
0.0135073
0.0103501
0.00683672
0.00706882
0.0101764
0.00674959
0.0116996
0.00842937
0.0127308
0.0114022
0.00790632
0.00903089
0.0064159
0.0108586
0.012984
0.011832
0.00638168
0.00681
0.00791807
0.00916557
0.0129265
0.011728
0.01084
0.00425085
0.0150603
0.0237552
0.0126184
0.0138357
0.0126531
-0.00368016
-0.0164313
-0.0144244
0.0455287
-0.0783497
0.00257068
0.00644857
0.00604277
0.0152296
0.00395208
0.0163701
0.0199256
0.0142803
0.00451881
0.0117994
0.00537266
0.0143298
0.0108459
0.0185736
0.00690862
0.00826509
0.00520601
0.00583582
0.0058174
0.00476776
0.00780786
0.00706714
0.00673458
0.0212978
0.0091458
0.00671388
0.0120799
0.0115002
0.0130982
0.00439516
0.00620175
0.00368592
0.010805
0.00669688
0.00945493
0.00534478
0.00678811
0.00516407
0.0108933
0.0107599
0.0108448
0.00441083
0.0073927
0.00508099
0.00295405
0.0106783
0.00657911
0.0066316
0.0188446
0.00713116
0.013445
0.00740894
0.0104258
0.00646993
0.00561827
0.00437892
0.00777337
0.00621049
0.0101119
0.00239786
0.00333881
0.0131383
0.00780898
0.0194257
0.00688284
0.00802362
0.00742591
0.00516584
0.00552532
0.0111458
0.00672923
0.00643376
0.0103301
0.00492705
0.00843777
0.01307
0.0111613
0.00447743
0.00429793
0.0105551
0.0113212
0.00582503
0.00406285
0.0120787
0.010155
0.00424466
0.00894492
0.00892821
-0.00397464
-0.0143908
0.0221361
-0.012635
0.0156412
0.0119152
0.0141522
0.0130523
0.00764341
0.00751353
0.00406469
0.00649607
0.00579326
0.00571146
-0.00583675
0.00948734
0.0107456
0.0112416
0.0100974
0.0123146
0.0135106
0.0185534
0.00579452
0.0186286
0.00589839
0.00206846
0.0134733
0.00301432
0.0134094
0.0271047
0.0184373
0.00916521
0.0248085
0.006581
0.00819021
0.00668387
0.0100313
0.00919723
0.0036662
0.000258726
0.0156987
0.012684
0.0290347
-0.0177682
0.00779371
-0.00575446
0.00821324
0.00246026
0.00836552
0.00743014
0.00226855
-0.000559078
0.00797681
0.00324137
0.000525176
-0.00080659
0.0095019
0.0115188
0.00934349
0.0112833
0.00164065
0.0141666
0.00535232
0.00858614
0.0114823
0.0138323
0.00183174
0.00333907
-0.000739934
0.00657809
0.0100227
0.0154151
0.0103758
0.0156867
0.0103651
0.00597479
0.00604558
0.0059715
0.0060979
0.0102117
0.0107037
0.0117184
0.00734319
0.00443198
0.0114376
0.0034443
0.00639261
0.0122353
0.0102828
0.00509411
0.00968632
0.00465694
0.0133497
0.0108354
0.0225303
0.0111811
0.0121179
0.00568049
0.00361889
0.00355295
0.00793668
-0.0138221
0.0131255
0.0180917
0.016962
0.0118305
0.00686444
0.00946023
0.00868747
0.0200203
0.0148025
0.0126763
0.00690215
0.00702127
0.0127644
0.00968524
0.00841485
0.00460181
0.0107937
0.0151367
0.00525147
0.0150178
0.0136794
0.00653157
0.0091012
0.00812575
0.00560989
0.00822055
0.000565758
0.00219171
0.0105327
0.0122132
0.00347482
0.0107043
0.0100212
0.0161182
0.00828887
-0.00870317
-0.0161126
0.00677372
0.011509
0.0673552
-0.0225159
-0.0307204
0.0356057
0.0107483
SCALARS CoVolArea double 1
LOOKUP_TABLE default
804.191
861.057
971.768
890.309
824.032
1484.89
1270.28
1361.32
1102.31
678.608
996.989
503.972
710.172
1512.55
1383.87
1476.13
1209.59
864.523
702.361
1453.29
2220.55
2841.51
1694.7
721.85
1381.76
1834.6
1502.57
1539.73
2193.16
1518.71
2213.65
1409.58
1555.5
1336.26
1600.52
1606.26
661.176
1921.05
1799.32
1429.93
2615.33
2953.16
1121.95
1047.32
862.531
1264.83
1588.63
590.116
1464.32
1741.57
1686.55
853.114
971.719
1557.83
1558.31
1121.82
934.391
878.613
1993.97
5295.08
3399.02
2724.71
1046.32
1847.85
1140.48
845.416
894.073
1357.24
1080.41
1070.49
991.338
1032.86
2914.22
989.868
1221.64
1637.2
1260.15
1175.32
1063.42
1698.43
1671
1091.74
1431.13
1554.71
1875.62
2772.8
1166.72
1575.46
1190.73
1627.98
1407.34
1850.45
1220.09
878.29
2516.84
1148.1
1564.8
1689.94
1609.11
1056.29
1790.2
1670.62
1378.24
1791.57
1975.51
1041.12
1439.83
1680.85
935.288
1110.49
878.539
965.045
1257.86
1689.61
1398.28
1042.03
1384.66
1292.38
1458.29
1492.64
1518.96
1585.7
1042.47
1431.7
1502.28
991.986
1563.07
1347.3
1136.91
1093.24
1280.66
1080.98
1720.18
2131.87
1434.45
2207.8
1242.27
1495.03
1114.6
741.034
646.146
1093.88
1382.59
1155.95
2555.57
1696.04
1337.68
1629.41
1531.29
1928.75
1648.89
1372.44
1215.34
1035.6
1794.99
824.543
1928.09
1838.04
1826.19
1478.68
1140.05
3231.27
1069.46
973.236
913.782
772.125
771.798
836.84
871.516
782.053
1312.19
816.698
837.728
425.668
1637.96
1342.84
1367.2
751.461
999.344
1004.8
1486.07
1613.98
1889.25
1662.12
1537.72
1442.53
1453.61
1572.3
1674.52
1564.48
1942.09
1821.56
922.974
885.761
1028.83
797.223
1009.82
877.142
1044.36
1543.62
1488.43
1524.13
1524.46
1532.23
1477.54
1450.41
910.81
981.977
912.567
1106.13
995.33
1110.4
963.908
866.105
1120.54
1265.64
1309.08
1061.48
2811.19
2759.09
1645.92
1940.74
2352.55
3805.94
1536.6
2392.75
2214.36
2263.11
3579.03
1878.32
2338.61
1683.32
1411.09
1319.21
1574.46
1104.54
1221.95
785.225
843.401
1333.14
1478.21
2090.42
2441.37
2070.51
3728.91
1652.87
758.437
2560.25
1441.59
1154.35
940.087
1429.02
1224.54
1324.41
1220.18
1358.29
933.634
806.366
1215.51
978.599
915.032
1129.68
1006.56
1092.74
1249.47
950.081
1186.66
970.369
1165.98
1077.87
1064.4
4786.1
1952.97
1269.51
1086.95
1400.97
1055.41
4143.16
1656.3
2362.58
686.762
2345.83
841.844
882.542
1093.96
1069.88
1363.04
1332.91
2782.89
2769.62
2246.16
1510.54
947.712
1044.18
1416.71
881.015
867.139
844.092
872.965
1974.27
1672.31
1582.6
1511.03
1457.97
1583.12
1701.88
1221.29
1291.84
1100.21
943.954
1031.65
671.617
1648.56
1463.29
1612.23
1808.35
1783.1
1519.99
2333.94
2466.4
1620.1
1754.92
2328.46
2278.96
1973.33
917.989
1315.34
1489.45
1389.37
1261.96
1428.36
1558.34
1128.92
1415.03
1261.52
1669.08
1421.39
1301.95
1275.97
1482.3
1480.02
1857.78
1732.67
1897.91
1376.78
972.667
1768.5
1297.74
1444.03
1452.5
1676.49
1193.5
1003.66
2076.05
1278.87
1040.9
1018.73
1786.07
1211.71
1234.72
1251.02
1442.83
1184.87
1267.13
1947.91
1467.4
1810.68
2790.9
2687.76
2154.73
1047.95
933.321
1607.4
1324.81
1305.62
1346.47
1670.96
1713.29
1526.15
1931.91
1588.76
1871.91
1427.38
1605
1500.87
1693.94
1737.27
1686.23
1533.29
1385.77
2033.97
1823.45
2027.1
1853.36
1951.81
1889.25
1347.36
1715.36
745.605
891.17
1300.41
1194.28
1367.61
2205.5
4280.42
881.517
1914.77
1379.87
2465.15
798.558
1018.99
806.605
1243.95
1230.75
880.399
1244.74
1059.29
759.233
947.342
899.955
956.38
1148.64
1179.27
1328.81
1263.04
1695.94
1411.32
1396.33
1383.01
1375.18
1637.59
827.678
951.122
868.567
1272.23
1056.95
1152.73
1452.1
1267.16
1635
1164.31
1467.57
1229.31
1659.81
1482.81
1547.92
1381.7
1378.07
1364.74
1838.72
1610.44
1847.5
1344.22
1098.06
1662.89
1502.6
784.48
1174.96
962.522
1183.1
1318.26
1627.73
1446.72
1551.31
1409.54
1610.96
1110.34
1288.6
1263.16
946.983
1115.77
729.111
1364.96
1453.52
1617.64
1808.61
1794.87
1601.15
1104.17
1061.23
1014
1057.88
1420.35
1052.88
1295.37
1158.22
1155.44
1366.5
1103.73
1774.2
1026
967.013
1309.41
2089.05
1355.52
1971.34
2890.91
1983.3
1269.17
2582.28
1721.71
1224.56
1320.04
1311.44
1211.63
1112.8
1973.18
1747.38
2006.33
1978.92
2429.43
1528.35
1327.86
1385.76
1325.02
1377.16
1270.13
1448.66
1118.32
682.253
988.583
1344.44
530.472
1562.32
1257.52
770.079
1182.64
1426.91
1035.03
1356.8
1127.71
2034.02
1100.5
1178.63
1511.72
1530.66
1004.05
2028.34
1157.47
2519.25
1515.85
2851.8
1311.22
1207.26
1505.34
1430.67
1413.71
1396.69
1914.35
2642.98
2644.41
1951.75
1390.54
1485.79
1574.32
1417.06
1739.8
1268.69
1843.39
1550.18
1261.8
1366.51
2423.94
2126.84
2435.81
1837.69
1795.9
1573.27
1815.19
1824.5
1220.96
1643.91
1354.2
1319.03
1606.2
1365.66
1303.21
1230.85
1356.35
1611.97
960.899
1474.8
1077.35
1053.09
1280.3
1727.55
1463.46
1645.68
1234.34
1364.63
938.034
1248.05
1355.68
1546.27
1626.74
2083.38
1938.2
2304.05
866.091
1200.7
897.65
738.941
979.943
1313.14
1060.73
1046.34
1363.73
1655.24
1596.64
1583.84
1647.16
1786.77
2113.49
1892.97
1546.83
1559.09
1828.11
1539.3
1503.85
1809.29
2078.21
2116.44
2245.2
2120.72
1445.69
2420.31
1251.18
1012.29
983.165
1220.14
2777.14
884.413
1691.71
3595.35
1083.59
1130.94
1190.19
1869.35
5300.7
1925.6
3436.39
1679.72
SCALARS SignedDistance double 1
LOOKUP_TABLE default
109.753
108.126
99.0381
94.3929
78.4597
80.2325
79.4608
84.4318
98.654
97.2414
102.49
104.734
105.239
72.6726
80.5597
78.2223
107.823
108.092
114.305
79.2705
119.659
116.105
72.5029
101.044
80.932
76.1076
119.651
105.31
67.5154
75.279
112.174
72.0183
102.175
77.3812
89.1511
91.416
88.2347
109.788
97.7457
72.1186
112.112
114.109
105.901
98.0741
97.5373
84.7395
88.774
106.299
71.258
73.8006
76.7471
97.1539
108.863
71.4144
75.0713
107.504
96.4228
96.083
141.415
137.762
139.758
141.647
106.005
118.95
105.577
115.605
153.264
75.4321
99.5033
107.5
102.515
96.5701
114.763
120.884
151.084
112.248
106.167
92.2834
103.136
77.3098
71.2955
97.6986
81.6109
83.3555
78.7926
79.2813
92.0784
74.8952
68.8322
70.8852
76.5851
113.986
102.648
106.45
126.251
103.233
107.802
103.078
75.3996
97.6122
68.8537
64.5725
71.7125
66.0527
68.3342
97.3815
77.0535
153.789
107.76
93.9966
100.839
103.78
97.4771
93.278
91.59
87.8719
92.0185
98.8538
85.9702
87.0572
75.7785
92.1681
90.2676
87.9172
89.0222
93.7153
94.1005
94.5297
86.1684
91.1295
96.2793
90.1745
96.8826
87.5254
98.8725
114.068
97.8776
73.3369
99.7961
102.58
102.731
94.5683
104.239
117.555
125.546
105.572
106.283
71.19
71.8012
79.015
96.8296
89.5871
98.7995
97.8618
114.825
102.088
71.5653
68.7857
68.3907
106.824
141.637
111.919
108.468
101.026
104.463
102.557
100.239
103.774
93.6289
97.038
90.0317
100.175
102.971
107.119
77.1163
84.4515
75.1278
104.035
103.742
101.573
75.2625
75.5123
78.8586
73.9214
72.2227
71.702
72.9356
73.2735
73.038
89.5797
77.194
79.5941
103.084
109.112
92.5354
96.2228
108.964
102.01
102.047
75.2542
71.4854
75.0903
70.8908
71.5712
70.9228
75.1157
108.245
101.63
102.51
100.668
101.013
107.379
91.2597
95.3663
91.6619
91.7213
91.362
96.1074
113.722
114.124
115.703
114.662
117.41
143.821
131.22
114.17
113.355
126.686
137.587
114.076
112.176
115.614
95.0528
105.932
94.9579
118.593
109.623
109.109
107.63
108.628
111.352
140.95
138.959
140.72
144.886
116.043
112.78
117.773
155.872
140.753
122.128
81.1483
90.3884
87.1693
85.7705
74.8611
101.57
106.266
102.96
101.121
100.751
108.811
103.869
113.967
87.187
99.5175
95.5483
107.512
100.971
109.194
116.07
136.653
134.359
111.358
109.028
107.887
117.028
133.699
123.778
130.31
125.325
133.681
106.79
106.181
107.361
105.169
114.678
107.829
115.389
143.888
125.747
115.317
98.8775
105.941
84.5693
94.0851
100.586
96.9584
97.4905
78.6937
75.737
70.5351
73.4907
72.5345
71.2905
72.224
97.0001
97.763
94.0654
97.3734
95.431
101.604
75.516
83.564
74.9871
75.8524
72.6127
84.4667
78.632
78.7184
72.5821
78.1946
79.132
79.9246
78.6964
99.6315
90.6491
77.6193
80.6749
85.4439
80.1644
74.3055
72.4842
72.1985
77.3393
74.8933
72.4226
74.1686
77.5974
71.6396
73.93
73.5573
72.4505
74.0246
103.023
101.498
116.234
112.766
104.433
109.147
108.612
103.265
112.783
122.182
112.604
109.627
124.47
124.882
100.115
102.351
100.355
108.486
104.683
103.039
117.958
105.103
114.829
112.127
110.229
110.403
99.1895
100.773
75.4377
85.6743
84.4657
86.8805
75.4486
75.399
72.4973
67.5125
67.0164
66.7347
68.0603
69.4593
76.5802
69.7328
71.8521
66.5883
65.7039
71.2613
67.3597
68.3924
67.2401
68.1329
64.9422
67.9217
91.0686
80.6468
105.294
102.866
70.6457
83.5818
81.8831
113.079
134.121
113.537
130.603
146.396
112.348
106.281
97.7471
99.5934
100.486
89.0108
95.716
79.8689
106.566
102.11
104.437
104.631
104.738
98.1008
95.2783
94.0146
93.5666
97.7008
96.4241
100.221
90.9695
92.9253
90.3861
94.9255
96.0205
97.3739
87.417
91.9361
81.3632
97.4517
95.1292
95.9884
83.4691
81.9851
76.9394
88.6809
86.1741
88.1721
75.6625
81.644
83.0281
94.1583
89.255
91.2856
93.0186
92.6241
91.5471
91.6077
88.6586
91.1417
89.5633
84.2101
85.7855
89.4404
88.8378
89.8451
87.8102
88.893
97.2293
96.2935
97.972
90.7475
93.2278
90.2904
93.8833
93.5564
92.5303
92.1879
92.8827
92.4288
90.4097
93.0331
87.9311
88.2267
89.3447
87.6849
86.0843
97.9802
95.259
89.5554
92.6377
94.7822
91.5348
89.2969
87.8961
96.1699
88.1014
89.4288
104.109
110.059
114.134
108.339
95.6819
87.9685
85.7534
84.4362
95.7113
95.5604
108.298
93.9503
101.891
98.0615
112.607
76.4551
83.7176
82.2231
82.8557
70.6377
98.8979
113.73
100.626
100.926
97.7649
103.123
102.731
103.456
80.316
99.7056
90.8357
109.357
101.511
105.028
97.7025
104.248
100.317
100.344
104.657
103.277
108.544
116.669
121.226
124.103
109.008
116.482
102.8
98.526
104.572
103.146
108.697
107.246
109.614
108.766
107.785
108.424
71.9572
70.9838
70.7094
71.8276
74.3997
83.9075
73.5564
76.6645
77.4066
72.9461
78.5129
77.8935
79.7888
78.4338
72.8413
68.8072
72.4473
75.1359
98.7009
93.7615
96.3778
99.4455
101.197
83.2034
85.1361
83.5794
89.0766
91.506
100.619
101.178
101.956
96.2021
89.8855
94.4277
92.9584
97.828
84.4831
106.416
98.8868
81.1698
83.4085
100.091
116.318
111.384
102.394
113.718
101.754
93.2567
98.7415
104.404
107.208
104.981
105.96
101.131
93.8583
71.0041
80.1789
80.135
70.9966
69.4566
66.8535
68.4551
67.95
64.8012
72.4255
64.7932
69.174
67.8041
66.8069
66.1388
66.6809
66.1592
99.1145
108.858
107.33
102.568
103.346
109.35
123.803
116.961
121.821
132.141
114.002
105.575
108.904
134.669
138.444
119.343
137.47
109.934
