# vtk DataFile Version 4.2
vtk output
ASCII
DATASET POLYDATA
POINTS 642 double
-123.832 226.171 54.9686
130.011 228.408 53.4029
-114.284 -226.546 -2.91544
125.217 -232.795 -4.81876
2.08314 -152.903 283.579
0.0251315 177.504 259.987
-0.445772 -154.223 -283.623
-2.40021 148.076 -282.654
219.245 -0.46332 -195.166
231.307 2.94454 183.148
-209.782 -2.66444 -194.157
-229.783 19.028 178.651
-211.534 148.196 124.357
-156.55 96.6367 261.804
-91.2557 257.822 165.034
94.8459 257.738 166.011
-0.0150043 267.796 52.398
91.4248 187.411 -184.95
-80.9772 188.915 -181.174
-150.697 90.3974 -275.843
-181.634 112.713 -129.133
-211.039 -4.43795 21.9025
157.719 101.476 261.622
220.428 151.396 125.126
-144.294 -87.2151 263.864
0.369912 -15.4937 323.253
-185.747 -116.23 -129.03
-186.342 -121.679 103.673
-1.29909 1.12884 -340.705
-154.222 -95.8954 -276.894
191.679 117.399 -138.505
159.77 95.7202 -279.705
198.326 -125.329 102.868
152.837 -87.3611 269.041
80.1729 -216.119 152.144
-74.9772 -212.909 151.633
2.26828 -286.916 -4.64226
-73.4178 -212.41 -162.236
79.7855 -220.243 -151.807
159.814 -95.7951 -279.665
182.323 -115.602 -123.089
223.422 -1.87896 20.8421
-172.733 195.197 92.0277
-169.319 212.46 142.461
-115.779 253.226 110.863
-210.346 52.6477 223.775
-202.247 129.277 190.951
-232.834 76.5497 158.998
-48.8973 227.27 226.576
-129.001 187.502 222.063
-87.6329 139.577 271.24
-45.7854 284.102 110.584
-66.6073 258.127 55.1891
50.577 226.812 226.585
-0.0518909 271.835 174.478
71.2279 257.466 53.3533
46.6016 283.538 110.59
121.832 254.723 109.289
-19.9845 213.739 -55.876
-90.8026 166.282 -71.8147
96.2404 176.035 -76.6306
24.9974 215.948 -54.4801
-52.6826 183.318 -232.826
-1.8576 194.868 -180.333
59.0031 183.112 -231.71
-142.845 156.802 -160.999
-163.432 166.975 -27.3546
-82.4024 127.866 -293.65
-120.773 159.955 -231.502
-206.682 61.4443 -159.14
-180.304 108.72 -204.905
-199.336 42.7454 -235.538
-192.585 137.856 53.7785
-218.523 -2.05452 -111.878
-207.189 68.4306 -73.8707
-221.531 81.2782 91.0047
-227.053 17.5241 119.125
176.072 213.984 144.796
181.262 198.746 89.9605
91.3041 141.055 271.483
135.101 189.301 224.953
231.963 91.5858 151.677
207.692 137.076 192.533
208.875 49.5399 225.466
-89.3005 44.7472 301.565
-0.118753 79.526 295.215
-199.747 -38.3175 224.137
-161.14 1.32851 276.17
2.08974 -89.1317 323.447
-82.3861 -53.5183 312.737
-74.7394 -126.966 283.389
-210.667 -54.6717 73.5138
-211.17 -52.0798 158.32
-207.969 -69.0662 -167.497
-202.536 -53.8016 -76.8465
-156.979 -181.678 48.9632
-184.619 -135.872 4.27935
-152.521 -182.156 -44.4585
-163.586 -1.03245 -293.943
-201.531 -48.0682 -235.831
-3.0816 84.5701 -328.312
-87.859 51.9197 -330.805
-85.5575 -133.547 -294.66
-89.3302 -51.6957 -328.639
-1.21649 -86.5707 -325.79
130.378 165.327 -233.909
90.8706 130.123 -293.222
172.61 168.288 -28.8706
153.452 159.802 -169.487
210.664 52.48 -237.432
195.798 116.175 -207.684
216.842 69.7581 -169.929
166.204 -187.322 45.0985
148.044 -180.166 131.813
108.252 -231.723 71.9199
206.901 -42.37 230.378
186.657 -104.66 199.469
220.401 -54.7528 159.262
41.6005 -187.039 228.101
118.871 -156.508 225.997
77.367 -126.914 285.045
38.7949 -259.795 63.9456
63.8704 -271.225 -6.5802
-39.4631 -185.306 228.159
2.32079 -228.698 161.766
-55.7147 -268.431 -5.48383
-33.4423 -257.748 63.7394
-101.27 -227.161 72.5878
40.8471 -271.502 -76.7308
104.345 -242.535 -74.1606
-94.7118 -236.141 -75.1072
-34.0365 -269.678 -76.587
53.6318 -185.851 -239.891
1.32212 -241.75 -146.548
-58.6241 -187.934 -238.069
142.787 -172.292 -149.718
162.561 -190.976 -42.9811
87.3607 -131.269 -293.522
131.136 -166.093 -234.549
215.557 -67.1289 -177.498
196.852 -115.427 -210.245
211.181 -53.1622 -237.08
195.379 -143.655 2.22494
228.408 0.184557 -114.107
214.114 -53.4002 -68.707
223.048 -63.5132 70.9922
237.079 9.34724 109.795
87.7603 -52.7205 315.05
164.968 -4.92112 282.285
92.9354 41.6372 303.533
-141.027 -174.517 132.414
-113.578 -154.864 224.673
-180.071 -103.932 194.652
-126.45 -167.674 -234.377
-144.61 -161.202 -159.451
-187.163 -115.653 -206.285
166.98 0.00726026 -291.065
91.3584 -54.6116 -327.946
91.0511 54.7015 -327.873
230.29 83.4604 87.773
218.749 67.8604 -72.6502
200.626 142.62 50.5585
-148.401 213.483 70.8697
-147.584 226.121 103.564
-121.079 241.331 81.9731
-195.786 180.32 132.43
-173.566 204.512 121.558
-194.331 172.606 112.352
-107.577 261.291 133.755
-143.697 235.843 128.025
-133.369 239.112 154.134
-227.67 32.9379 198.248
-231.595 65.3903 186.743
-236.829 48.1928 169.953
-181.991 114.389 229.727
-208.199 90.1406 210.394
-185.876 74.329 246.198
-222.525 115.252 140.195
-225.028 103.416 170.898
-214.608 142.175 150.891
-24.8851 204.193 247.621
-68.0979 187.651 249.454
-44.756 160.472 264.921
-110.42 226.69 195.747
-90.6393 210.51 225.315
-70.5542 245.039 199.108
-123.052 118.575 270.362
-109.634 165.422 249.911
-144.908 142.948 244.868
-188.228 174.573 166.213
-168.927 160.315 209.687
-151.669 203.562 182.668
-90.4682 260.301 83.3983
-97.1385 244.103 54.8927
-69.507 278.968 134.668
-80.4512 272.42 111.772
-35.0957 265.846 54.0935
-56.0967 273.635 84.8748
-23.3914 279.147 84.4602
25.5989 204.063 247.655
-0.0204188 230.523 228.2
48.6402 268.938 172.743
25.7613 253.543 203.154
73.4241 244.809 199.429
-25.4612 253.572 203.159
-47.6819 269.277 172.586
103.356 244.301 52.1992
96.1888 260.499 82.4456
127.898 242.861 81.0211
22.9407 279.028 84.1568
58.8127 272.984 84.2615
36.1204 265.524 52.6524
112.123 262.077 133.798
84.6959 272.349 110.94
71.5527 278.332 134.709
-25.5107 287.93 138.494
25.381 287.734 138.635
-0.411133 286.745 111.369
-81.8011 234.857 27.7712
-109.109 218.75 26.8824
-17.0917 249.561 18.1652
-46.276 246.39 24.628
-88.8309 184.612 -160.935
-46.1706 198.291 -66.2194
-55.5434 197.902 -149.486
110.305 221.539 20.4356
90.534 232.515 22.022
64.1959 197.663 -148.25
65.8018 192.062 -63.3693
100.281 186.345 -157.686
50.0184 246.089 22.6322
18.7974 249.988 17.0316
-29.2765 168.287 -258.476
-0.782816 183.537 -232.889
29.5262 168.383 -256.89
-49.1929 194.658 -180.492
-29.6408 189.197 -208.156
-69.5762 187.981 -206.757
79.1653 187.245 -209.638
30.6725 188.364 -209.146
54.3921 191.019 -183.131
1.2601 217.429 -53.3392
23.089 203.69 -135.233
-23.8902 203.317 -136.727
-139.906 160.477 -43.1635
-143.797 196.194 33.3905
-113.73 175.441 -175.486
-126.502 165.495 -148.511
-160.611 149.685 -91.2438
-157.794 145.452 -115.271
-164.184 138.579 -140.446
-44.8233 139.648 -290.808
-68.6065 160.952 -264.353
-137.705 128.841 -256.237
-104.689 146.965 -263.562
-117.677 111.01 -288.674
-87.4765 175.592 -234.1
-100.269 178.52 -205.685
-210.08 32.6631 -179.199
-203.791 54.7027 -202.431
-207.383 19.0188 -215.348
-182.098 111.283 -168.447
-194.584 85.3545 -186.815
-199.185 85.1692 -141.663
-178.77 67.606 -256.934
-192.067 79.6654 -221.723
-172.613 103.127 -239.472
-134.013 161.473 -196.191
-155.111 136.752 -219.463
-161.728 138.394 -183.437
-163.677 184.493 47.4802
-161.419 122.638 -43.9232
-163.023 173.116 11.6316
-185.341 167.891 73.0238
-203.992 145.841 94.6306
-214.364 -1.96114 -149.275
-217.409 34.2467 -130.553
-199.626 41.1518 -34.68
-214.553 34.9834 -103.977
-208.287 -14.2825 -76.3826
-212.377 60.1225 -113.454
-206.542 71.026 -98.2223
-232.221 51.3556 152.349
-229.721 24.5501 159.315
-218.477 116.644 112.97
-226.523 81.8949 133.845
-224.712 9.2285 77.8295
-226.807 47.8851 108.166
-220.831 41.5149 66.2306
-210.453 74.142 -3.82872
-207.383 80.0304 29.9942
-210.363 110.279 69.9288
154.969 228.918 101.385
156.321 216.25 70.5058
138.347 239.424 156.062
150.004 238.191 127.285
202.951 176.527 109.869
181.587 207.759 119.688
204.024 183.164 134.041
46.8889 160.479 264.727
71.9617 187.432 250.204
149.251 147.827 246.8
114.619 167.366 252.138
125.323 122.901 271.137
95.5163 210.31 226.714
115.802 226.968 197.626
231.018 43.9469 170.166
227.689 71.6271 188.041
225.764 23.0297 202.159
222.604 147.826 152.994
227.223 114.897 170.14
230.917 124.266 137.76
186.036 76.4354 245.861
209.419 98.3495 210.184
185.467 121.843 230.324
158.59 205.329 186.238
175.39 165.012 212.601
196.007 178.061 170.099
-50.66 112.847 283.76
-0.0431315 132.078 277.135
-126.015 75.8017 286.1
-93.1585 93.7875 288.496
-0.276175 28.1294 313.198
-49.5654 58.966 300.226
-45.5695 13.0072 315.601
-218.547 -10.7944 200.048
-206.871 7.57545 225.391
-154.796 -44.4137 273.724
-182.382 -20.0758 253.702
-174.271 -62.6837 245.59
-185.489 29.5973 252.431
-162.667 50.9913 272.171
2.03591 -124.791 306.283
-34.4475 -109.763 306.37
-31.8079 -141.913 285.386
-39.2745 -35.3603 321.384
-35.6315 -72.5519 319.605
1.47377 -55.4378 330.748
-111.226 -108.941 276.727
-79.8972 -91.9001 302.112
-116.064 -72.1634 292.561
-126.868 23.3503 294.401
-123.351 -27.0653 299.111
-86.6925 -6.51844 314.44
-222.549 -16.6753 137.985
-220.924 -16.5445 172.24
-213.963 -22.5774 52.823
-223.779 -20.1285 94.2889
-199.415 -85.1268 135.047
-214.593 -53.0123 114.224
-200.401 -90.7559 88.5104
-210.611 -40.5632 -180.903
-216.395 -36.5473 -135.289
-193.837 -93.1404 -106.803
-209.738 -60.821 -130.82
-199.086 -92.8489 -154.191
-216.686 -26.4498 -101.157
-212.253 -27.8982 -34.1126
-138.01 -202.878 23.9032
-156.482 -182.814 2.66857
-134.735 -206.335 -22.656
-186.661 -131.935 54.5968
-172.729 -158.335 28.2723
-172.441 -154.193 73.373
-170.291 -146.654 -85.0156
-171.992 -158.633 -20.9065
-183.39 -127.974 -56.1007
-206.539 -61.5317 8.50628
-194.385 -102.592 -28.7446
-196.307 -100.774 36.0182
-203.678 -2.0276 -240.593
-207.578 -24.6628 -215.188
-159.402 45.8596 -288.254
-184.129 21.4573 -265.627
-182.225 -72.6439 -257.482
-185.701 -24.7562 -265.967
-160.788 -48.222 -287.934
-2.93321 119.535 -308.018
-47.024 107.488 -315.9
-49.4134 28.16 -340.533
-48.2753 69.3455 -333.735
-2.16458 46.3144 -339.617
-86.7757 91.9247 -316.305
-121.922 73.4507 -307.756
-46.6933 -145.342 -291.324
-48.692 -111.732 -314.39
-0.735024 -124.41 -307.253
-124.224 -76.4705 -307.498
-89.333 -96.0131 -315.437
-121.027 -116.552 -289.876
-1.24779 -44.641 -338.017
-48.9796 -69.5741 -330.871
-49.556 -25.8815 -340.188
-128.453 24.6905 -316.583
[...]
POINT_DATA 642
SCALARS Mean_Curvature double 1
LOOKUP_TABLE default
0.00776606
0.00774642
0.00691103
0.00852764
0.0176003
0.00373767
0.0060843
0.005977
-0.00110963
0.0149032
0.00143998
0.0172663
0.0158093
0.00865591
0.00875987
0.00847874
0.00626441
0.00605382
0.0134552
0.00909921
0.000545187
-0.00269099
0.00775014
0.0139011
0.00899201
0.00532817
0.00588295
0.00509434
0.0020432
0.0097447
-0.000462094
0.0105774
0.00694648
0.00983049
0.0061487
0.00607586
0.0234284
0.00244299
0.00773438
0.0103066
-0.00311904
-0.000331427
0.00587913
0.0197373
0.00847018
0.0108336
0.00631726
0.0201161
0.00963436
0.00742394
0.00826228
0.0154539
0.0088551
0.00816254
0.00543594
0.00732496
0.0135741
0.0103434
0.00803027
-0.0133322
-0.00436755
0.00817699
0.0152933
0.000905971
0.0130592
0.0102757
0.102183
0.0104877
0.0137391
0.00508895
0.00994726
0.0150308
-0.000470364
0.0128581
0.0112367
0.00544894
0.00257002
0.0155304
0.00725531
0.00742952
0.00834787
0.00481698
0.00900995
0.00539467
0.00520582
0.000963545
0.0112879
0.00963856
0.0155783
0.0101468
0.00921697
0.00170708
0.00345622
0.00850148
-0.00645064
0.00922924
0.00616365
0.00411804
0.0120072
0.0144854
0.00749945
0.011033
0.0113542
0.00796913
0.00482985
0.0146603
0.0113774
0.06204
0.00596762
0.0170102
0.0162476
0.00652785
0.00676687
0.00555544
0.007149
0.0124003
0.00642734
0.00350135
0.00455806
0.00726322
0.00755287
0.00328394
0.0124801
0.0049063
0.00998039
0.0133926
0.00252596
0.00786353
0.0117346
0.0106934
0.00866287
0.012762
0.0120298
0.00714095
0.0102973
0.00114583
0.00632541
0.00785309
0.0145038
0.00706204
0.0241297
0.0169606
0.00797619
0.013383
0.000774671
0.0058678
0.010581
0.00904476
0.00997955
0.00490541
0.00520231
0.00808381
0.0101311
0.0156966
0.000670174
0.0140062
0.00567712
0.0100789
0.00949422
0.00443308
0.028427
-0.000206712
0.00786684
0.00566882
0.00893953
0.0236274
0.00788936
0.00306982
0.0190029
0.0162987
0.0130803
0.0173795
0.0188169
0.0345167
0.0074054
0.00627221
0.00996867
0.0102055
0.0162776
0.0175074
0.0101018
0.00742979
0.00214879
0.00749721
0.00825301
0.00882298
0.00848069
0.00753983
0.00817991
0.00802344
0.00735545
0.00622698
0.0093783
0.00886769
0.0187722
0.0102862
0.00853916
0.00822004
0.00753702
0.00972443
0.00688969
0.00830591
0.00993109
0.00798833
0.0101046
0.00909036
0.00877555
0.00900317
0.0086877
0.00722552
0.00642947
0.00768704
0.0176747
0.0107136
0.016412
0.0182154
0.0180272
0.00930861
0.00300987
0.00272966
0.00492963
0.00278796
0.0027002
-0.00274167
0.0127253
0.00479896
0.00468991
0.0100231
-0.00842663
0.00642654
0.00150372
0.00609743
0.00602715
0.0119651
0.00489596
0.00592398
0.00188609
0.0111348
0.010484
0.00259076
-0.00190464
0.00357675
0.00324944
0.00441731
-0.00949655
-0.00151854
0.01281
0.00487017
0.0133743
0.00510453
0.0138976
0.00781452
0.010921
0.0100292
0.00976387
0.00976741
0.0156388
0.0107156
0.00425825
0.00882409
0.00844166
0.00475947
0.00577851
0.00825256
0.00985454
0.0136137
0.0136146
0.0113605
0.0125636
0.00979302
0.0174531
-0.0141567
-0.0191554
0.00755433
0.00603501
-0.000536257
0.0133363
-0.00934128
0.00382732
-0.0110443
0.018321
0.00892093
0.0021038
0.000277018
0.00604882
-0.0012548
0.00970709
0.00393263
0.00359475
-0.0341484
-0.01014
0.0112253
0.00771568
0.00785197
0.0105775
0.016163
0.00621821
0.0106664
0.0190147
0.00126511
0.00700919
0.00966314
0.00917881
0.00992437
0.00778947
0.00765586
0.00310017
0.0140374
0.0112708
0.0189218
0.015005
0.0187458
0.00665649
0.00685201
0.00902401
0.00743489
0.00917877
0.00973475
0.0023592
0.0012819
0.0104758
0.00767335
0.00406123
0.000141121
0.00580383
0.0148392
0.00592511
0.00872897
0.0095806
0.00801145
0.00562472
0.0109437
0.0154962
0.00714541
0.00718091
0.00428098
0.00709465
0.0197042
0.0101591
0.00985981
0.00960239
0.00649419
0.00990229
0.0117957
0.00326765
0.00435129
0.00116923
0.0111997
0.00245261
0.00672333
0.00361213
0.00246319
0.0122288
-0.000488325
0.00631092
0.00593284
0.0242597
0.0157545
0.00392711
0.00630258
0.00561891
0.0081193
0.00412468
0.00565589
0.00257913
0.00700814
0.00442776
0.00194648
0.00314748
0.000984399
0.0185165
0.00558192
0.0088842
0.00665127
0.00974202
0.00816846
0.00666736
0.00651724
0.00943012
0.00683142
0.0104103
0.00755196
0.0110322
0.0100963
0.00763548
0.00836288
0.00569908
0.00943733
0.0111703
0.0105257
0.00592175
0.00673992
0.00758625
0.00842275
0.0113074
0.0104083
0.00896418
0.00416567
0.0157369
0.018972
0.0109587
0.0107286
0.00988701
-0.00180618
-0.0141764
0.0136385
0.0041924
0.0236885
0.00492304
0.00654815
0.00939491
0.0153157
0.00391651
0.0128004
0.016394
0.0108537
0.00453641
0.0121886
0.00621291
0.0149991
0.0116279
0.0152612
0.00630177
0.00741076
0.00489066
0.00536689
0.00557323
0.00440169
0.00708764
0.00657277
0.00604681
0.0185015
0.0104276
0.00727638
0.0109484
0.0116197
0.0108479
0.00349906
0.00581636
0.00370495
0.0102476
0.00644002
0.00863772
0.00501599
0.00669423
0.00493629
0.00958778
0.00962048
0.00969812
0.00444792
0.00740031
0.00490115
0.00347444
0.00975933
0.006174
0.00578859
0.01607
0.00671193
0.0117119
0.00752315
0.00937258
0.00584415
0.00537885
0.00416829
0.00699686
0.00580684
0.00952008
0.00297381
0.00352636
0.0115525
0.00713071
0.0165423
0.0064784
0.00655756
0.00684191
0.00499615
0.00536536
0.00937548
0.00646875
0.00609051
0.00891466
0.00495745
0.00746709
0.0113862
0.00982676
0.00449818
0.00450098
0.00901064
0.0103005
0.0058899
0.00435771
0.0101436
0.00821972
0.00543184
0.00702848
0.00800856
-0.00411087
-0.00936413
0.0174724
-0.0104839
0.0114466
0.0106785
0.0119843
0.0111734
0.00764533
0.0069228
0.00223398
0.00597559
0.00536641
0.00525574
-0.00437137
0.00883655
0.00899873
0.00895049
0.00887635
0.0109586
0.0113506
0.0155372
0.00523954
0.0181714
0.00927648
0.00343798
0.0156912
0.00285621
0.0102114
0.0211909
0.0124707
0.00987221
0.0195691
0.00862337
0.00751959
0.00618852
0.00881846
0.00817344
0.00353066
-0.000513797
0.0119147
0.00915784
0.0210333
-0.0135655
0.00687121
-0.00451769
0.0073199
0.00229636
0.00826024
0.00621856
0.00295485
0.00064381
0.00691807
0.00411751
2.14135e-05
0.000423342
0.00857244
0.0101403
0.00802255
0.00965345
0.0021368
0.0107778
0.00518466
0.00782776
0.0102869
0.011908
0.0019275
0.00359708
-0.000356049
0.00711177
0.00801272
0.0130771
0.0089655
0.0141256
0.00919942
0.00544476
0.00576629
0.00545514
0.00547999
0.00909034
0.00959226
0.0103628
0.00757372
0.00428825
0.0121123
0.00341989
0.00766303
0.0104345
0.00921431
0.00506348
0.00897712
0.00467856
0.0114399
0.0114916
0.0159595
0.00940799
0.00927036
0.00561192
0.00310519
0.00309203
0.00669957
-0.0100496
0.0127393
0.0137553
0.0157091
0.0112113
0.00707823
0.0118968
0.00980286
0.0173365
0.0110629
0.0114812
0.00568761
0.00579207
0.0115245
0.00857351
0.00781369
0.00466958
0.00986516
0.0126823
0.00490802
0.0125751
0.0119784
0.00593917
0.00836402
0.00734645
0.00543456
0.00742532
-0.00012162
0.00246719
0.00986031
0.0100737
0.00447734
0.00800246
0.00521269
0.0117879
0.0087307
-0.00841674
0.0160251
0.0066929
0.00869273
-0.0123384
-0.0174335
0.013815
-0.00329648
0.00652354
SCALARS CoVolArea double 1
LOOKUP_TABLE default
917.73
971.703
1100.82
1034.22
1006.19
1599.91
1438.66
1520.91
1189.19
826.189
1077.62
676.853
910.715
1735.7
1662.11
1743.55
1384.3
1014.59
884.062
1704.67
2271.52
2817.3
1910.5
930.026
1608.2
2003.75
1661.8
1708.63
2366.73
1767.42
2311.29
1667.01
1735.87
1577.16
1784.35
1786.87
894.623
2141.7
2028.21
1682.02
2624.84
2901.82
1251.8
1372.23
1059.09
1513.65
1861.42
806.577
1671.36
1951.41
1865.15
1101.47
1129.42
1759.55
1833.22
1275.03
1178.77
1089.17
2336.6
4689.96
3136.28
3023.48
1289.12
1934.22
1394.07
1035.68
1202.67
1584.76
1367.78
1270.8
1209.15
1291.85
3204.27
1162.45
1278.83
1736.66
1404.14
1480.73
1217.56
1865.95
1894.76
1272.19
1708.22
1789.42
2067.51
2836.46
1410.3
1807.79
1430.7
1869.7
1623.48
1966.46
1355.15
1055.83
2644.87
1320.67
1737.63
1855.28
1852.03
1328.18
1990.13
1919.07
1602.85
2026.06
2153.81
1357.98
1657.49
1883.38
1091.53
1390.97
1145.21
1146.07
1432.31
1874.9
1574.69
1290.29
1566.38
1443.46
1630.49
1689.28
1726.51
1779.97
1229.95
1598.4
1711.47
1174.38
1757.28
1525.33
1366.54
1280.86
1460.27
1312.39
1835.37
2293.85
1598.87
2367.01
1423.57
1705.82
1390.13
908.48
906.801
1387.78
1558.44
1327.39
2738.99
1844.4
1507.15
1875.83
1770.5
2114.96
1830.6
1571.59
1415.7
1326.06
1884.83
1070.72
2146.1
2066.34
2058.33
1624.32
1444.52
3140.19
1205.82
1139.02
1090.54
1061.61
959.261
982.653
1144.75
1023.81
1621.65
1113.48
1154.06
640.694
1847.32
1592.9
1569.01
954.211
1311.12
1329.44
1673.24
1808.03
2025.12
1893.45
1738.95
1647.35
1659.25
1776.12
1891.43
1911.85
2179.62
2113.08
1110.97
1036.25
1338.28
1016.54
1168.41
1062.79
1235.61
1727.56
1698.33
1797.07
1729.4
1731.45
1685.51
1728.96
1070.38
1170.18
1092.7
1294.65
1175.26
1267.8
1236.95
1088.51
1424.64
1613.32
1653.18
1333.12
2768.04
2635.11
1836.64
2124.19
2343.59
3825.43
1834.41
2339.56
2261.7
2484.08
3654.78
1961.25
2475.98
1893.31
1650.12
1564.9
1816.31
1267.49
1358.69
978.766
1004.18
1448.93
1579.63
2373.81
2636.22
2280.79
3565.43
1860.33
923.653
2439.99
1585.43
1371.93
1137.47
1632.46
1477.92
1604.33
1479.14
1586.47
1200.96
1045.01
1369.14
1159.99
1086.54
1283.61
1175.73
1248.93
1506.96
1181.69
1468.58
1226.72
1460.17
1297.85
1222.71
4884.94
2097.18
1408.3
1221.18
1582.6
1270.75
3826.59
1685.93
2294.77
919.383
2396.01
948.211
990.335
1237.75
1172.98
1513.33
1449.38
2705.11
2930.52
2137.48
1699.49
1135.28
1183.22
1707.74
1134.91
1034.79
1054.89
1156.34
2099.63
1859.73
1813.93
1719.39
1665.91
1784.43
1928.17
1374.35
1542.48
1346.8
1253.67
1300.33
880.468
1837.42
1700.99
1833.58
2091.23
2043.84
1853.02
2439.21
2542.58
1849.05
1922.65
2422.52
2386.82
2141.69
1167.97
1559.79
1722.11
1604.05
1480.85
1630.71
1792.33
1358.56
1639.12
1474.58
1890.05
1648.65
1520.88
1495.12
1701.33
1720.49
2118.76
2003.18
2147.64
1517.1
1112.72
1928.81
1468.91
1575.61
1608.25
1825.87
1333.32
1214.63
2142.2
1417.65
1166.67
1251.08
2085.18
1374.55
1399.24
1402.95
1614.5
1355
1442.1
2119
1647.19
1984.74
2938.46
2777.51
2288.16
1316.84
1101.75
1850.9
1581.99
1569.63
1603.57
1909.78
1898.91
1742.56
2144.64
1808.63
2059.48
1658.96
1850.47
1703.32
1896.31
1929.24
1926.81
1756.11
1611.6
2197.78
2014.75
2227.39
2128.73
2217.78
2160.46
1594.35
1902.68
976.066
1167.55
1535.88
1459.4
1660.31
2338.17
4055.69
1082.55
1986.12
1507.33
2347.8
949.921
1213.3
1015.85
1379.69
1539.45
1158.03
1508.73
1201.31
950.583
1106.19
1158.21
1182.46
1482.8
1354.89
1508.89
1433.79
1875.54
1584.33
1562.43
1563.4
1557.97
1828.96
1063.07
1142.24
1027.71
1503.69
1266.18
1385.81
1616.7
1420.72
1801.68
1359.79
1658.77
1441.85
1841.51
1654.8
1710.82
1597.53
1581.54
1593.76
2028.85
1825.58
2048.21
1516.5
1270.95
1849.34
1672.72
992.308
1359.95
1189.54
1375.99
1502.63
1821.81
1625.85
1707.16
1595.75
1805.6
1269.8
1461.36
1424.57
1171.36
1302.54
933.413
1543.63
1628.87
1808.76
2027.84
2015.5
1837.64
1291.81
1236.29
1253.22
1257.87
1632.11
1252.15
1529.59
1314.67
1328.57
1618.43
1297.15
1909.25
1221.48
1207.23
1517.38
2170.73
1555.67
2140.85
2872.68
2062.76
1528.96
2636.24
2002.78
1492.38
1591.9
1578.12
1390.86
1284.5
2232.58
1927.97
2128.49
2118.77
2476.33
1733.65
1550.48
1673.16
1561.43
1597.45
1466.02
1694.84
1267.21
899.436
1188.64
1422.35
703.46
1616.86
1529.33
1070.47
1513.35
1700.33
1359.47
1536.69
1310.78
2164.23
1293.92
1359.41
1684.49
1698.9
1215.82
2271.46
1384.28
2436.72
1674.87
2885.09
1471.15
1345.19
1683.6
1600.71
1534.61
1538.98
2068.3
2745.98
2812.12
2099.3
1618.63
1734.44
1792.33
1647.33
1953.08
1523.83
2057.75
1755
1495.55
1619.26
2517.33
2278.51
2528.51
1996.56
2017.02
1859.17
2076.66
2077.15
1402.03
1825.74
1534.75
1499.72
1786.96
1565.47
1533.51
1443.52
1531.25
1786.91
1159.2
1633.23
1234.64
1273.44
1514.47
1925.89
1692.25
1840.89
1466.48
1564.9
1189.53
1502.87
1648.55
1720.66
1775.77
2239.01
2062.02
2330.61
1065.18
1507.77
1163.33
926.628
1136.4
1492.62
1248.76
1363.57
1644.97
1893.63
1838.08
1826.25
1888.45
1986.15
2307.66
2080.54
1764.75
1809.54
2023.33
1793.39
1731.05
2012.44
2279.35
2368.74
2480.48
2372.46
1595.84
2463.02
1418.52
1182.41
1146.93
1426.45
2762.01
1109.67
1777.17
3483.74
1265.57
1273.73
1360.36
1944.57
4900.08
2127.96
3318.28
1866.77
SCALARS SignedDistance double 1
LOOKUP_TABLE default
131.396
129.359
118.975
113.504
93.8619
95.2977
94.7061
99.9272
118.157
116.218
122.702
124.385
125.621
87.9237
93.7857
91.9712
128.461
128.86
135.098
94.0938
140.61
139.44
87.3513
120.665
96.8467
91.1045
140.14
126.091
81.074
89.9205
132.906
86.4052
121.717
92.8904
107.498
109.992
105.622
125.903
115.075
86.4416
132.761
135.887
126.526
114.811
116.475
99.4254
102.88
126.531
86.1024
89.0448
91.9372
115.375
129.998
86.2544
89.506
128.412
114.611
114.614
162.617
157.604
160.524
162.075
124.123
138.25
123.943
137.121
170.249
90.4364
116.994
127.585
122.161
113.428
136.906
142.907
164.549
133.781
127.154
108.101
123.147
92.6978
86.216
116.91
96.5362
98.6859
94.0386
95.3946
108.04
90.1339
82.7611
85.5107
92.1709
135.747
123.2
127.384
145.01
123.67
129.116
123.838
89.4836
113.897
82.9423
78.0148
86.1155
79.1155
82.2666
113.481
91.4615
169.461
128.904
108.945
119.453
124.181
117.155
112.238
110.673
103.458
110.598
118.264
103.185
104.399
91.1635
110.578
108.459
105.263
107.08
112.501
112.283
114.176
103.645
109.672
115.587
107.531
112.483
105.381
114.571
131.851
117.754
87.8598
113.635
123.229
122.259
109.457
124.453
138.771
144.023
126.571
126.557
85.3114
86.7053
94.1248
116.406
107.45
117.444
112.93
134.363
121.491
85.7878
81.7305
81.4445
127.805
160.315
133.531
129.531
120.867
124.617
121.598
120.084
124.28
110.335
115.483
104.2
115.474
117.255
127.292
92.7996
99.3902
90.4628
124.628
120.398
118.329
90.0367
90.3476
94.5689
89.2336
87.3539
86.7904
88.2126
88.5617
88.3486
103.309
92.8346
94.8888
122.821
130.599
108.252
114.821
129.787
121.649
121.508
90.0147
86.3838
89.5946
85.7465
86.3512
85.7734
89.6266
129.265
121.297
122.377
120.139
120.461
128.147
107.413
113.622
107.144
106.26
106.046
114.492
135.816
136.507
137.558
136.446
138.799
162.984
150.903
136.425
135.331
146.239
157.373
134.623
133.92
137.121
110.829
124.38
110.736
138.105
130.399
129.093
128.44
129.584
132.262
162.418
157.763
160.532
160.915
137.649
134.449
139.969
168.633
152.739
142.264
96.2728
105.184
102.836
100.797
89.8013
118.624
125.933
122.975
121.184
120.189
129.774
124.461
134.952
102.467
118.257
111.554
127.551
119.855
129.791
136.892
156.063
149.808
132.808
130.285
127.797
137.218
153.194
145.535
151.121
145.885
151.937
127.916
126.941
128.467
126.083
136.76
129.229
137.465
156.861
144.263
137.232
118.152
126.471
98.9939
111.553
120.31
115.861
115.553
94.3928
90.3085
85.494
87.8449
87.5065
86.4264
87.2425
116.326
113.288
110.422
113.2
111.766
120.91
90.8641
98.4306
90.2406
90.9686
87.9825
98.9765
94.4831
94.6168
87.5088
93.3815
94.689
95.2875
94.211
117.595
105.725
93.234
96.4208
101.632
95.6482
89.2706
87.1789
87.2328
92.7945
89.5574
86.2982
88.0984
93.5041
86.7577
89.0677
88.59
87.4126
88.6129
123.5
121.773
138.496
134.481
124.695
130.124
130.001
123.54
133.4
142.899
134.19
131.05
146.43
146.698
120.505
123.139
120.767
129.385
125.61
123.707
137.351
126.108
135.523
133.529
132.385
132.388
116.132
120.409
89.9946
100.35
98.9588
101.091
89.8086
90.1237
86.8942
80.8743
80.6881
79.9341
82.1026
83.6721
91.3635
84.1669
86.5399
80.6516
79.5977
85.5988
81.0067
81.7706
80.518
81.7792
77.7096
81.5159
106.077
95.9843
125.327
119.225
85.0657
98.053
96.2087
134.183
153.815
133.763
142.976
159.705
133.43
127.696
116.608
118.748
120.166
103.282
112.397
93.5474
127.537
122.134
125.195
124.741
125.33
115.079
114.795
113.415
112.601
116.665
115.83
120.118
109.687
112.004
109.078
111.991
114.526
116.898
103.674
109.145
96.8138
117.177
114.031
115.346
99.602
98.1988
92.3591
106.682
103.505
105.778
90.9877
97.8512
99.2235
112.834
107.36
109.544
111.67
111.271
109.686
110.033
106.348
109.497
107.646
100.586
102.987
107.828
106.521
107.937
105.34
107.157
116.541
115.514
117.868
109.181
112.118
108.495
112.91
112.502
111.358
110.464
111.241
110.705
108.868
111.856
105.292
106.142
107.737
105.633
103.956
117.681
114.317
107.94
110.957
113.865
110.044
107.046
103.06
111.985
103.209
107.294
119.9
126.235
130.027
123.557
113.133
104.675
103.418
101.895
114.82
115.021
124.897
112.868
122.061
117.876
131.971
91.193
98.6423
96.3023
97.1642
84.9992
113.436
130.293
120.544
120.422
116.682
124.145
123.284
124.506
93.8283
116.029
104.414
127.494
117.996
125.371
117.552
124.881
120.644
120.427
124.914
122.643
128.387
138.096
142.492
145.398
129.819
137.305
122.393
118.016
125.24
122.413
130.066
128.04
130.833
129.778
129.251
129.62
86.8804
85.8405
85.5359
85.5728
89.0908
98.8723
88.7413
91.9306
92.4534
87.735
94.3461
93.4125
95.1277
93.6842
87.8223
83.0046
87.0473
89.3262
118.432
112.965
115.928
119.607
121.066
99.5246
101.798
100.196
106.523
109.933
120
121.281
121.953
113.644
107.21
113.415
111.161
117.446
98.9575
124.187
113.145
95.8029
97.9914
120.219
136.604
130.849
121.98
131.939
121.092
108.12
116.791
124.666
128.201
124.967
126.577
118.777
109.075
84.8333
94.3114
94.288
84.8293
83.8279
80.3007
81.7193
81.786
78.6142
87.0122
78.6226
82.9156
81.5774
80.0045
79.7701
80.1031
79.7899
118.655
130.539
127.932
122.567
123.791
128.859
143.769
137.024
142.545
151.085
134.062
126.226
129.586
148.275
155.291
139.536
150.056
131.469
