# vtk DataFile Version 4.2
vtk output
ASCII
DATASET POLYDATA
POINTS 642 double
-178.936 300.799 22.4974
182.432 302.816 21.6244
-172.913 -298.264 -1.5714
179.065 -303.016 -2.35637
0.881172 -199.572 336.965
0.0318083 208.246 325.845
-0.278846 -200.194 -337.081
-1.16278 197.317 -336.301
307.775 -0.285043 -211.115
313.511 0.455187 206.223
-301.865 -1.42282 -210.507
-311.168 5.62179 202.098
-292.992 186.886 124.707
-193.25 119.352 316.108
-116.95 314.309 196.677
118.632 314.637 197.263
-0.213663 357.443 21.6871
114.915 280.566 -199.197
-109.991 279.192 -196.529
-192.479 117.761 -324.188
-267.452 166.019 -130.617
-318.512 -1.39189 10.3685
194.057 121.454 316.572
298.259 189.315 126.17
-187.82 -115.357 315.87
0.267895 -6.28056 393.291
-272.164 -166.398 -131.949
-269.977 -167.65 118.217
-0.642032 0.471818 -404.112
-194.201 -120.125 -325.205
274.998 169.545 -135.565
197.018 120.57 -327.26
276.649 -171.044 118.076
192.382 -116.089 319.7
108.981 -287.566 186.631
-106.603 -285.199 186.02
0.747683 -368.001 -1.59267
-108.506 -283.869 -190.086
108.638 -289.056 -187.774
197.015 -120.589 -327.264
269.371 -165.536 -129.777
325.899 0.114082 9.55033
-243.532 254.433 76.7467
-219.699 263.284 164.294
-159.335 325.313 108.2
-266.259 62.2973 269.529
-258.362 161.235 228.319
-317.906 95.8698 170.222
-61.4928 272.974 275.146
-162.195 228.376 268.436
-102.453 169.131 333.804
-61.1278 363.592 109.584
-94.982 343.595 22.1181
62.2112 272.788 275.188
-0.0127972 331.633 208.142
96.8455 343.523 21.5152
61.3369 363.23 109.702
161.896 326.639 108.056
-46.4935 311.856 -84.1657
-138.652 269.942 -90.6214
144.073 279.328 -93.4369
48.8999 312.231 -83.2184
-62.2531 253.24 -273.517
-0.557247 289.371 -203.856
65.0353 253.204 -272.838
-203.042 234.552 -169.673
-231.646 226.958 -47.6154
-101.482 166.349 -346.299
-158.556 216.776 -270.077
-296.162 88.8802 -173.936
-251.363 153.551 -231.024
-263.743 58.7873 -273.932
-281.67 182.735 25.4635
-320.468 -0.823581 -110.5
-310.013 90.8433 -69.7562
-319.909 97.1753 78.9229
-324.387 9.38545 117.607
223.465 264.863 166.646
248.495 257.44 75.9326
104.252 170.215 334.977
165.266 229.88 270.579
316.461 102.062 170.028
262.155 165.062 230.059
265.963 61.1405 270.174
-104.048 60.4534 369.922
-0.0491608 102.04 366.414
-260.92 -56.8909 267.92
-202.273 0.338747 332.837
0.880157 -108.532 385.351
-101.893 -64.4312 376.063
-97.4514 -164.49 339.035
-310.129 -82.7317 69.9854
-299.388 -84.2573 171.751
-299.814 -93.0503 -176.526
-302.553 -83.756 -74.1691
-229.683 -241.872 58.3709
-274.65 -178.877 2.11719
-226.591 -241.9 -56.2833
-206.134 -0.35989 -344.535
-265.002 -60.5708 -274.397
-1.35781 107.192 -388.383
-105.614 64.5743 -388.163
-102.915 -168.916 -347.299
-106.126 -64.3387 -387.044
-0.619498 -107.609 -386.813
163.087 220.123 -272.636
105.129 167.855 -346.734
237.029 226.626 -48.9383
209.435 238.107 -174.21
269.663 63.0177 -276.652
259.846 158.327 -233.802
306.28 94.2477 -178.608
235.095 -245.742 57.2465
204.368 -241.279 158.924
150.016 -305.239 92.5712
265.861 -59.0769 272.31
251.088 -149.954 229.644
304.166 -85.7571 173.98
57.3776 -251.913 271.881
156.67 -213.204 267.34
98.7198 -164.749 340.248
55.8068 -340.145 90.2075
94.0145 -349.603 -2.71998
-56.5737 -251.184 271.601
0.937426 -304.072 197.747
-90.509 -347.455 -2.25906
-53.5592 -338.685 89.8201
-146.356 -301.851 92.3108
57.5144 -348.149 -96.4649
149.628 -311.748 -93.8862
-144.685 -307.336 -93.762
-54.8305 -346.776 -96.1748
63.177 -253.316 -277.556
0.549148 -309.67 -191.937
-64.7262 -254.728 -277.4
204.269 -235.818 -166.283
233.395 -247.596 -56.4463
103.873 -168.031 -346.789
162.924 -219.633 -273.14
305.8 -93.855 -180.956
261.083 -158.615 -233.703
269.773 -63.0893 -276.567
282.193 -183.823 0.884014
326.915 0.0751455 -112.4
308.887 -82.8803 -70.3537
317.842 -87.3211 69.6551
330.961 3.99405 112.658
104.368 -64.1939 378.208
204.806 -2.14139 337.137
105.907 59.2735 371.507
-200.353 -237.476 158.615
-153.93 -212.194 265.887
-246.668 -148.904 225.746
-161.222 -220.432 -272.529
-205.665 -235.643 -172.733
-255.944 -157.704 -232.157
207.13 0.00342223 -342.773
106.965 -65.6458 -386.806
106.848 65.6878 -386.814
325.306 99.6608 76.9599
317.09 91.9052 -70.4798
287.282 186.125 23.2024
-212.534 281.061 48.633
-205.439 292.831 93.8307
-171.311 315.577 64.9732
-262.052 228.056 144.598
-237.387 263.605 120.661
-270.685 223.123 101.92
-141.46 325.441 151.054
-192.662 299.084 137.682
-170.73 292.421 182.404
-293.48 33.1524 237.516
-296.01 80.2969 220.941
-319.725 51.0417 187.77
-229.359 142.119 275.8
-264.726 112.711 252.013
-232.684 91.2749 296.148
-307.047 143.069 147.494
-291.065 129.871 199.577
-280.346 176.206 174.647
-30.9314 242.793 304.886
-82.6256 224.415 307.182
-51.6933 190.588 331.284
-140.809 275.383 235.546
-113.6 253.757 273.861
-90.1764 296.955 238.934
-149.175 145.443 328.83
-134.153 200.945 304.591
-179.871 175.511 295.812
-241.745 214.948 198.814
-214.048 197.345 251.831
-193.673 249.234 219.827
-127.471 339.813 65.7556
-139.117 325.107 22.0184
-90.6952 345.343 152.835
-111.038 348.483 110.235
-49.0372 354.591 21.9895
-78.5608 357.173 66.5067
-30.6733 365.502 66.4252
31.259 242.721 304.907
0.000410729 276.734 278.132
60.4954 327.737 205.675
31.6697 306.704 244.36
91.4075 296.992 239.195
-31.5441 306.721 244.357
-60.0944 327.86 205.643
142.067 326.02 20.9743
129.834 340.413 65.4273
174.628 317.25 64.5402
30.339 365.154 66.4553
79.511 356.843 66.4187
49.2279 354.266 21.5877
143.191 325.816 151.584
112.491 348.602 110.227
91.4518 345.165 152.992
-31.7948 354.764 158.411
31.7944 354.725 158.463
-0.156562 368.138 110.801
-120.27 318.423 -16.6093
-159.047 297.562 -16.6838
-27.3504 341.688 -21.6072
-71.9982 334.719 -17.9669
-128.229 278.094 -161.381
-91.0774 290.016 -87.712
-81.0461 294.52 -158.93
160.276 299.999 -20.9653
124.365 318.153 -20.3378
85.2656 293.702 -159.079
99.8682 288.947 -87.3802
133.714 279.223 -161.146
73.8119 334.458 -19.091
27.5999 341.904 -21.9712
-32.6883 227.315 -307.484
-0.319292 254.766 -274.697
32.9505 227.043 -306.251
-59.0623 288.513 -202.375
-32.5586 277.061 -238.684
-88.2793 271.644 -235.748
92.4987 273.521 -236.85
33.5151 276.683 -238.442
61.9188 287.19 -203.727
-0.165004 318.436 -84.1556
29.4697 300.604 -155.323
-30.3761 302.157 -155.77
-185.683 250.12 -68.3165
-205.408 269.476 -1.50949
-159.04 260.776 -185.523
-175.282 255.95 -147.716
-245.196 205.518 -96.4483
-219.112 227.106 -122.681
-239.507 203.674 -149.114
-52.2853 184.218 -345.109
-82.9122 213.949 -313.365
-177.559 170.333 -301.109
-132.689 194.077 -310.993
-148.63 143.914 -339.277
-111.601 238.444 -274.55
-135.813 254.695 -234.397
-301.873 44.9512 -194.975
-287.455 76.7646 -225.762
-288.678 28.1237 -242.366
-262.757 161.571 -181.319
-277.734 122.497 -204.825
-285.988 128.473 -151.087
-231.195 89.1446 -301.957
-260.435 109.093 -254.798
-226.319 137.987 -279.494
-185.601 231.259 -220.525
-209.043 188.258 -253.54
-229.57 198.943 -201.923
-237.181 248.128 21.4756
-257.758 168.276 -53.2783
-252.341 214.885 -9.96202
-266.619 219.769 50.3387
-290.164 187.553 76.6035
-308.967 -1.45826 -163.071
-312.128 45.8117 -142.231
-305.903 45.3513 -34.6251
-317.691 44.9262 -96.3369
-317.481 -3.88586 -65.8552
-307.612 88.8891 -119.726
-296.827 120.186 -99.408
-328.96 53.0473 148.138
-324.56 9.61931 163.223
-310.848 142.579 103.963
-321.338 97.3959 127.063
-326.625 5.06845 66.5501
-325.804 52.8802 100.441
-323.13 49.3771 50.5241
-297.566 125.391 -19.0565
-311.726 96.9248 14.2475
-305.862 142.212 50.0708
209.212 295.295 93.2401
216.854 283.621 48.2338
173.548 293.475 183.992
195.303 300.228 138.48
275.908 225.795 102.117
241.419 265.602 121.403
266.487 230.151 146.863
52.7715 190.539 331.221
84.35 224.404 307.815
182.288 178.118 297.683
136.487 202.205 306.441
150.265 147.572 329.895
115.798 254.024 274.886
143.397 276.093 236.792
316.295 50.2249 190.427
295.927 82.9283 221.106
293.54 29.5609 238.648
285.583 179.736 176.952
293.908 134.621 200.442
311.987 147.651 148.555
232.921 92.1966 296.253
266.174 116.232 252.343
231.59 145.597 277.004
197.395 251.09 222.03
217.7 200.191 254.228
246.427 217.823 201.377
-54.5956 137.997 353.035
-0.0027512 157.561 346.828
-151.13 92.9352 347.753
-106.222 116.075 355.063
-0.102798 46.2687 383.657
-54.4188 80.033 370.998
-52.6715 26.6336 385.76
-289.145 -25.6552 236.359
-266.515 2.84532 271.717
-197.808 -58.8259 328.821
-234.144 -29.3269 304.335
-226.946 -86.554 294.419
-235.954 32.7768 304.43
-201.179 61.1295 328.446
0.861428 -157.192 364.885
-48.2746 -138.543 366.474
-46.5669 -184.013 340.785
-50.151 -35.771 389.424
-49.0988 -87.1176 383.614
0.722312 -58.8746 396.479
-144.49 -141.659 330.984
-101.277 -116.063 361.972
-147.686 -91.8058 350.845
-155.229 30.7767 357.077
-154.376 -32.648 359.776
-104.418 -2.57235 380.02
-315.571 -36.8448 145.496
-308.582 -39.8129 188.984
-318.718 -38.7518 42.9627
-322.568 -38.6358 92.3602
-285.234 -125.873 147.81
-307.125 -83.9221 121.103
-293.489 -127.254 94.5529
-303.321 -48.5412 -195.328
-311.882 -47.9832 -144.452
-291.182 -129.481 -105.162
-305.532 -89.9853 -128.867
-288.843 -132.513 -156.08
-318.754 -41.0233 -96.0285
-315.927 -38.4176 -35.7743
-203.013 -270.634 28.6695
-230.544 -243.801 0.987004
-201.654 -272.387 -28.8032
-274.661 -176.019 60.0379
-254.764 -211.034 30.983
-250.924 -207.058 87.0316
-249.63 -201.671 -95.2819
-254.09 -211.246 -27.6328
-272.685 -172.606 -62.7518
-306.951 -86.1342 4.94408
-291.828 -134.593 -33.1355
-293.494 -133.837 35.4054
-268.929 -0.743068 -279.522
-289.563 -30.2198 -242.384
-202.116 59.8722 -338.464
-237.413 29.968 -312.15
-232.804 -91.1149 -302.706
-238.251 -31.1171 -312.628
-202.729 -60.6443 -338.467
-1.3198 155.272 -365.831
-53.9614 138.859 -373.262
-55.5457 33.5396 -402.463
-55.0249 86.801 -393.324
-1.01301 55.687 -401.458
-105.343 117.387 -371.688
-151.935 93.3609 -361.172
-53.2054 -186.692 -345.753
-54.6376 -140.342 -372.552
-0.438128 -157.018 -365.449
-152.805 -94.3813 -361.118
-106.283 -118.871 -371.373
-150.242 -146.407 -340.383
-0.59152 -54.8723 -400.423
-55.2459 -86.6865 -391.667
[...]
POINT_DATA 642
SCALARS Mean_Curvature double 1
LOOKUP_TABLE default
0.00741925
0.00739122
0.00617515
0.00680903
0.00962212
0.00534501
0.00472406
0.0052787
0.00652201
0.0112949
0.00857788
0.00698181
0.0106763
0.00595172
0.00542861
0.00539544
0.00513191
0.00866235
0.00770614
0.00621124
0.00356428
0.00175114
0.00558712
0.0100317
0.00605927
0.00546309
0.00439809
0.0040885
0.00300536
0.00640723
0.00314068
0.00668742
0.00459185
0.00632804
0.00459138
0.00439982
0.0101991
-0.000941069
0.0023014
0.00667355
-0.00158836
0.00240017
0.00499164
0.0054587
0.00805033
0.00657659
0.00534629
0.0108162
0.00628073
0.00546554
0.00568501
0.0100188
0.00697003
0.00571917
0.00483773
0.00635851
0.00959293
0.00832177
0.00207326
-0.00462408
0.00544185
0.00147847
0.00668283
0.00302977
0.00501204
0.00721905
0.0025603
0.00648698
0.00610243
0.003357
0.00844876
0.00574685
0.0033068
0.00811935
0.00916617
0.00419146
0.000403476
0.00561811
0.00570479
0.00643208
0.00586143
0.00803957
0.00611442
0.00441895
0.00502658
0.0019788
0.00616085
0.00610583
0.00830774
0.00624226
0.00597668
0.00326276
0.00623461
0.00648849
-0.00312465
0.00657144
0.00468402
0.00404135
0.00752056
0.00530506
0.00528958
0.00660482
0.00675442
0.00572548
0.00409636
0.00606844
0.00728701
0.000283912
0.00776907
0.00665063
0.00800433
0.00708363
0.00506239
0.00415249
0.00502131
0.0065215
0.00660026
0.00511603
0.00480189
0.00608299
0.00533091
0.00361008
0.00756359
0.00520177
0.00625662
0.00807929
0.00337743
0.00517891
0.00692425
0.00673325
0.00616661
0.00715525
0.00812052
0.00537747
0.00806416
-0.000601155
0.00497465
0.00592564
0.00637682
0.00803442
0.00894704
0.00648669
0.00561019
0.00836847
-0.0014701
0.00525688
0.00563415
0.00592768
0.00662475
0.00527546
0.00386442
0.00637748
0.00660221
0.00619025
0.00403949
0.00872347
0.00456281
0.00659926
0.00647371
0.00423992
0.0085976
0.00355852
0.00610992
0.00607387
0.00601444
0.00908654
0.00995982
0.00698336
0.00746418
0.00969554
0.00500186
0.00735678
0.00521151
0.0103787
0.00565128
0.00559467
0.00633133
0.00821928
0.00488226
0.0045445
0.00656148
0.00530869
0.00401876
0.0057487
0.00571821
0.0061685
0.00568307
0.00531565
0.00561442
0.00482881
0.00557047
0.00537447
0.00639824
0.00689968
0.00703632
0.00866996
0.00687715
0.00635187
0.00664863
0.00634831
0.00520347
0.00571372
0.00658284
0.00578018
0.00665872
0.00604273
0.00659853
0.00635685
0.00612951
0.00622208
0.00582249
0.00630008
0.00686055
0.00835661
0.00661905
0.00657451
0.00659232
0.00839162
0.00493106
0.00458584
0.00436764
0.00413797
0.00571129
-0.00728344
0.00717209
0.00515459
0.00536799
0.00586252
-0.0100991
0.00407657
0.00352989
0.00464193
0.00487276
0.00412868
0.00342043
0.00625946
0.00709561
0.00889798
0.0104873
0.00638905
0.00462093
0.00278766
0.00199341
0.00409765
-0.00473595
0.00361649
0.00832979
0.00568712
0.0106621
0.00492226
0.00647888
0.00632546
0.00647409
0.00594752
0.00626312
0.00641869
0.00623069
0.00800252
0.00563145
0.00910053
0.00755079
0.00559477
0.00734959
0.00454611
0.00597044
0.00681823
0.00605319
0.00789079
0.00680865
0.0071599
0.00566277
-0.0111925
0.00649361
0.00577455
0.00581527
-0.000336245
0.00473363
-0.00873659
0.0073031
0.00304518
0.00745053
0.00614393
0.012017
0.0107833
0.00663038
0.00492148
0.00676767
0.00300334
0.00356991
0.00236065
0.00457057
0.00564007
0.00674195
0.00635607
0.00523409
0.00846551
0.00691135
0.00896867
0.00859008
0.00341336
0.00506917
0.00622856
0.00582546
0.00595495
0.00553283
0.00568718
0.00783043
0.00474267
0.00464648
0.00579834
0.00592742
0.0101504
0.00492913
0.00546336
0.00619901
0.00567735
0.00615088
0.00553521
0.00334671
0.00198903
0.0062246
0.00625764
0.00390997
0.00205076
0.00567477
0.00593127
0.00459149
0.00604982
0.00623813
0.00573368
0.0056421
0.00641004
0.00836661
0.0054436
0.00540811
0.00409282
0.00517893
0.010608
0.00642591
0.00616247
0.00625084
0.00477679
0.00645264
0.00709872
0.00158239
0.008286
0.00266424
0.00768509
0.00260111
0.00421729
0.00399083
0.00565757
0.00421151
0.00342086
0.00642606
0.00639176
0.00970761
0.00332974
0.00376425
0.00493751
0.00469419
0.00539652
0.00404927
0.00422211
0.000726271
0.00498842
0.00272792
0.00159707
0.00349225
0.00303312
0.00772459
0.00747224
0.00608588
0.0052187
0.0058338
0.00583424
0.00531607
0.00496843
0.00665262
0.00598791
0.00673483
0.00515684
0.00667997
0.0064953
0.00611241
0.00621357
0.00424316
0.00603073
0.00659784
0.00664555
0.00461261
0.00564859
0.00595061
0.00591813
0.00693957
0.00672961
0.00727459
0.00394474
0.0082914
0.00661006
0.00672557
0.00637003
0.00624239
0.00369451
-0.00955531
0.00658405
0.00442208
0.011765
0.00411416
0.00941093
0.00745138
0.0096048
0.00692458
0.00620341
0.00648755
0.00654435
0.00544905
0.00951524
0.00813843
0.00869986
0.00909347
0.00641494
0.00477401
0.00520378
0.00423531
0.00401734
0.00476423
0.00415805
0.00514909
0.00504448
0.00443279
0.00692897
0.00803794
0.00901769
0.00657071
0.00703045
0.00652087
0.00279394
0.0062949
0.00406362
0.00711361
0.00519885
0.00610541
0.00450934
0.00573394
0.00434777
0.00621761
0.00624802
0.0062655
0.00446741
0.00636525
0.00460723
0.00416724
0.00668734
0.00479438
0.00419609
0.0086442
0.00556528
0.00721751
0.00620934
0.0068619
0.00442884
0.00457025
0.00408888
0.00502008
0.00460979
0.00689164
0.00390247
0.00395168
0.00734197
0.00569203
0.00889025
0.00503559
0.00423906
0.00508939
0.00440569
0.00447021
0.00567975
0.00545426
0.00502897
0.00569765
0.00475848
0.00563545
0.00687607
0.00636183
0.00447185
0.00466964
0.00612724
0.00665396
0.0051445
0.00462346
0.00615494
0.00589522
0.00570947
0.00522085
0.00487595
-0.00187732
0.00282124
0.00904937
-0.00246127
0.00427558
0.00656013
0.00698541
0.00678319
0.00604228
0.00523702
-8.79265e-05
0.00507105
0.00393684
0.00435667
-0.000962575
0.00618653
0.00595597
0.00626652
0.00640555
0.00679481
0.00658277
0.00804711
0.00746586
0.0104955
0.00723749
0.0102907
0.0122286
0.0056586
0.00649939
0.00602722
0.00605578
0.00921848
0.00648338
0.0111956
0.00558214
0.00460299
0.00581794
0.00547339
0.00336417
-6.08908e-05
0.00369447
0.00207356
0.0100627
0.000999844
0.00538404
-0.00113698
0.00467492
0.00457026
0.00666732
0.00306679
0.00530853
0.00411093
0.0039032
0.00513555
0.00111294
0.00279226
0.00603131
0.00646618
0.00532383
0.00585833
0.00358206
0.0064574
0.00444008
0.00563567
0.00668061
0.00702486
0.00285837
0.00431596
0.00158323
0.00618589
0.00472201
0.00739424
0.00599935
0.00826241
0.00577018
0.00413885
0.00478622
0.00451982
0.0036962
0.00590526
0.00622497
0.00650046
0.00640799
0.004498
0.0073667
0.00488763
0.00770699
0.00588837
0.00611095
0.0050526
0.00647026
0.00529845
0.00694461
0.00831235
0.00692932
0.0064566
0.00609176
0.00512544
0.00403238
0.0011124
0.00316454
-0.000149941
0.00935871
0.0060922
0.00662915
0.00858732
0.00771412
0.0105998
0.0100215
0.00642097
0.00396495
0.00715245
0.00516792
0.00517776
0.0071508
0.00582379
0.00598785
0.00449105
0.00665359
0.00714926
0.00435209
0.00712349
0.00715298
0.00478648
0.00598833
0.00547526
0.00479108
0.00550146
0.00105401
0.00362052
0.00593914
0.00702837
0.00728058
0.00274611
0.00510933
0.00469522
0.0075317
-0.00681403
0.00555008
0.00606222
0.00624509
0.00849129
-0.0114908
0.00440265
0.00220171
0.00492936
SCALARS CoVolArea double 1
LOOKUP_TABLE default
1727.66
1773.19
1875.28
1873.18
2020.16
2302.71
2290.39
2307.3
1953.64
1848.29
1807.74
1816.41
2314.7
2890.76
2902.8
2947.3
2442.98
2142.51
2105.98
2919.38
2896.18
3135.57
2999.07
2347.89
2802.24
2997.01
2539.04
2643.57
3293.25
2960.43
2844.22
2921.99
2714.46
2823.42
2777.25
2763.88
2278.12
3087.79
3039.2
2922.63
3018.76
3155.84
2264.42
2887.11
2331.58
2645.82
3021.08
2271.41
2762.07
3073.34
2840.64
2609.92
2180.41
2812.31
3086.44
2282.77
2650.53
2380.94
3499.42
3794.18
3363.15
3762.04
2579.53
2700.26
2663.76
2277.03
2827.01
2751.63
2822.97
2345.14
2605.34
2626.45
3200.96
2239.9
2793.66
2612.56
2287.27
2928.9
2300.51
2834.01
3068.52
2452.39
2980.28
2828.48
3143.55
3290.04
2604.65
3020.41
2679.71
3095.18
2738.86
2771.67
2295.74
2173.88
3234.88
2324.65
2729.49
2709.55
3102.44
2670.46
2996.68
3184.01
2773.04
3230.85
3071.14
2893.14
2792.56
3247.91
2269.45
2719.78
2708.71
2249.82
2413.93
2881.11
2536.36
2570.88
2713.52
2390.91
2626.22
2840.26
2799.83
2837.62
2335.94
2596.77
2837.19
2279.56
2817.93
2493.77
2636.71
2363.24
2493.52
2597.09
2695.45
3165.24
2594.85
3178.48
2442.32
2818.68
2772.88
2029.68
2543.39
2735.57
2616.43
2350.97
3410.29
2748.99
2456.37
3116.71
3020.04
3172.68
2825.47
2756.46
2637.2
2804.32
2666.51
2620.88
3260.64
3249.19
3249.1
2612.43
2961.73
3196.38
2200.54
2298.6
2210.71
2641.29
2274.18
2135.82
2533.57
2439.05
2972.8
2476.68
2584.55
2120.89
2979.26
2707.03
2657.34
2308.41
2672.32
2824.19
2697.9
2837.9
2847.44
3024.41
2806.41
2713.4
2731.12
2830.11
3031.3
3365.19
3396.6
3416.01
2306.86
2069.96
2841.87
2374.46
2197.07
2284.29
2515.9
2728.81
2799.15
3045.79
2805.25
2764.26
2781.19
3008.94
2133.88
2354.14
2235.22
2548.67
2349.85
2263.19
2585.13
2424.85
2885.24
3254.41
3273.11
2965.26
2986.48
2897.55
2850.48
2883.75
2700.77
3797.89
2924.82
2831.13
2846.03
3180.62
3741.22
2609.47
2994.97
2895.79
2709.82
2778.34
2805.96
2348.47
2479.17
2271.2
2274.79
2531.73
2475.17
3647.59
3535.75
3343.03
3796.84
2776.81
2175.7
2804.36
2647.09
2628.52
2331.58
2702.48
2693.21
2938.96
2709.75
2736.51
2562.6
2521.12
2296.34
2368.34
2317.46
2406.15
2297.31
2258.36
2706.76
2518.57
2877.99
2827.33
3078.52
2766.93
2390.62
4106.07
2773.85
2300.67
2327.14
2455.76
2398.89
3738.02
2469.5
2633.06
2179.7
3042.86
2016.32
2027.73
2369.93
2160.64
2391.75
2258.27
3179
3611.53
3384.86
2880.72
2352.08
2202.01
3011.41
2521.38
2222.62
2376.02
2691.53
2882.34
2866.04
3012.09
2808.43
2747.48
2841.03
3057.17
2445.21
2729.82
2574.9
2782.68
2620.69
2245.23
2815.08
2791.03
2998.95
3417.88
3368.53
3341.82
3113.14
3089.65
3030.83
2882.04
3058.18
3088.81
3136.54
2445.87
2692.94
2944.45
2711.35
2601.96
2724.59
2996.22
2572.37
2786.82
2607.59
3062.64
2808.63
2691.21
2641.58
2817.88
2967.18
3439.39
3383.34
3453.21
2378.97
2192.18
2807.16
2427.54
2399.04
2485
2720.88
2258.65
2325.79
2778
2319.21
2095.63
2317.78
3078.15
2316
2350.6
2303.1
2617.71
2327.57
2405.68
2884.84
2580.79
2908.55
3617.38
3447.56
3161.79
2672.95
2332.23
3075.51
2779.09
2751.44
2792.38
3108.93
2869.72
2873.13
3263.66
2935.72
3020.69
2847.54
3101.53
2761.58
2949.47
2901.14
3146.84
2898.77
2762.98
3075.6
3025.28
3298.28
3527.39
3580.95
3541.77
2747.63
2851.15
2507.78
2574.52
2729.36
2710.27
2992.12
3004.64
4075.47
2297.06
2918.97
2679.58
2810.65
2170.15
2478.92
2383.39
2322.25
2958.15
2602.71
2722.96
2195.94
2271.72
2353.05
2855.72
2783.18
3192.92
2341.64
2500.84
2397.26
2850.33
2542.91
2478.93
2534.98
2553.57
2854.3
2383.57
2376.41
2158.97
2792.28
2496.91
2594.5
2506.48
2421.8
2772.73
2484.66
2723.09
2591.13
2864.69
2660.66
2627.77
2713.81
2694.97
2848.72
3152.88
3114.96
3193.75
2503.81
2296.26
2865.98
2609.42
2211.62
2426.97
2488
2491.48
2569.53
2864.03
2620.52
2604.84
2614.83
2860.26
2258.67
2452.89
2359.64
2468.83
2380.43
2161.34
2511.31
2577.54
2841.27
3208.65
3201.53
3097.25
2382.9
2270.27
2567.86
2396.52
2640.65
2383.99
2753.57
2271.91
2374
2833.95
2409.83
2717.43
2359.18
2536.72
2628.53
2865.14
2636.4
3081.11
3157.23
2762.83
2635.66
3080.59
3130.02
2937.87
3029.22
3014.61
2434.9
2285.13
3244.38
2801.34
2823.31
2868.44
3038.91
2788.09
2715.98
2981.56
2741.78
2751.99
2570.3
2887.37
2277.23
2344.58
2480.31
2403.45
2077.43
2274.67
2732.57
2604.39
2968.29
3136.08
3043.27
2890.48
2350.48
2978.5
2370.25
2370.53
2689.83
2530.23
2328.86
3163.46
2428.24
2703.3
2510.3
3277.92
2419.18
2297.42
2715.47
2522.82
2375.6
2423.54
2900.99
3469.32
3591.19
3083.4
2787.09
3003.96
2882.58
2816.92
3091.85
2716.19
3143.49
2813.14
2688.9
2927.54
3149.91
3199.84
3160.62
2925.46
3133.06
3333.58
3425.54
3423.93
2419.72
2823.87
2521.11
2486.11
2765.94
2673.69
2797.79
2613.34
2579.89
2805.07
2397.31
2622.32
2321.98
2503.29
2780.74
3092.56
3030.98
3009.76
2675.17
2765.98
2487.55
2724.28
2976.83
2668.17
2633.24
2965.2
2819.8
2948.88
2373.12
2937.42
2582.67
2223.5
2294.77
2873.06
2667.98
3091.77
2876.64
3112.48
2912.69
2910.28
3112.14
3003.28
3337.25
3060.62
2898.85
3092.8
3017.86
3086.07
2891.29
3037.2
3328.93
3646.41
3700.29
3647.89
2529.41
3070.89
2396.74
2283.27
2343.79
2457.77
3182.21
2298.12
2596.31
3636.92
2475.85
2395.33
2327.99
2763.69
4032.56
3431.59
3789.57
2984.86
SCALARS SignedDistance double 1
LOOKUP_TABLE default
230.996
226.859
214.141
204.871
166.367
168.236
166.626
172.953
208.176
199.588
216.376
205.37
214.241
161.495
165.436
163.359
222.929
226.431
228.98
165.377
240.906
249.034
160.053
205.778
172.727
162.852
238.478
223.959
146.219
159.662
232.092
154.878
214.366
166.035
195.422
199.544
188.001
206.509
198.402
154.865
227.811
239.24
220.381
184.042
200.286
172.586
177.431
210.166
158.009
163.057
164.385
194.114
226.182
158.062
160.28
223.94
193.562
196.157
258.683
256.068
255.798
255.168
199.441
232.51
199.553
234.801
259.623
160.639
191.6
222.878
208.761
185.971
241.508
242.738
261.788
234.233
226.177
177.495
213.747
165.047
158.473
202.721
170.09
172.524
165.42
172.087
185.177
163.431
150.604
155.571
166.383
238.562
219.609
222.855
242.973
220.611
231.211
222.681
156.49
183.457
149.685
142.679
154.869
143.568
149.455
184.092
158.825
254.224
226.575
175.169
196.83
217.253
211.68
202.993
201.795
177.15
196.404
209.686
184.669
185.787
164.422
198.62
195.055
187.075
193.234
201.041
201.203
207.661
187.577
198.171
207.122
192.105
187.47
190.442
188.647
216.044
212.724
156.688
182.966
218.664
197.915
175.248
222.155
235.103
237.629
226.433
220.623
153.194
157.832
165.106
209.915
190.298
203.308
183.304
227.346
203.117
153.653
143.71
143.656
225.544
253.043
235.095
225.782
210.017
215.951
200.239
206.239
216.897
181.215
193.563
173.355
187.868
186.082
206.267
167.435
174.387
164.899
210.853
189.949
191.692
161.632
162.667
168.665
162.968
160.321
159.098
161.174
161.702
162.579
178.802
168.261
169.586
212.357
228.367
176.17
195.727
224.749
209.68
209.014
161.616
158.273
160.428
156.761
158.179
156.773
160.439
225.378
209.548
211.735
207.936
208.289
223.053
177.186
193.528
175.191
171.486
171.449
193.623
238.973
240.987
237.57
237.665
239.662
255.21
245.084
239.044
237.402
239.671
250.721
233.382
235.147
236.29
185.524
201.284
185.572
231.578
219.5
215.504
215.799
219.126
230.343
258.662
247.427
251.346
256.221
240.199
230.74
242.566
260.071
250.48
239.937
167.272
177.291
175.935
173.975
160.603
192.667
212.2
217.726
209.671
202.444
225.785
217.21
231.896
173.856
195.637
184.504
215.974
197.995
220.959
237.445
255.016
248.487
232.431
228.282
223.769
230.547
254.017
247.549
255.412
241.724
250.391
223.987
222.178
225.14
223.139
239.701
230.478
241.453
257.569
250.325
239.826
204.312
220.235
168.928
186.901
208.845
198.181
191.66
168.62
162.175
158.01
159.051
159.218
158.373
159.752
203.412
185.978
184.784
183.437
183.597
202.487
164.834
172.182
163.197
163.696
161.333
171.087
170.463
171.346
160.211
165.583
168.944
170.715
167.339
194.198
179.987
167.183
171.832
178.513
169.64
161.156
156.585
158.451
166.483
159.367
155.015
154.068
168.37
158.714
161.741
160.882
158.807
158.674
221.26
214.214
244.685
235.277
221.916
228.195
231.671
217.934
229.004
243.678
235.283
230.166
246.523
248.059
217.914
222.347
218.102
229.353
226.304
222.129
232.236
226.847
235.011
239.361
236.949
236.426
185.915
203.331
159.299
170.025
168.918
169.806
157.472
159.766
154.521
144.47
145.368
144.739
149.262
151.374
161.676
151.938
155.887
148.104
146.302
154.814
146.445
146.711
143.936
147.205
140.977
146.826
178.288
167.954
207.515
189.491
153.442
168.351
166.382
234.707
248.849
230.638
239.068
249.624
233.682
225.48
194.415
199.287
210.839
171.889
182.458
162.052
224.558
208.651
218.496
208.482
213.381
186.988
208.18
206.1
204.07
208.401
208.808
215.171
199.081
203.017
198.438
186.385
196.169
205.938
180.517
187.115
170.241
211.506
203.235
206.821
176.144
174.985
165.29
192.303
184.802
190.86
164.179
174.403
175.787
201.723
190.231
196.531
200.903
200.193
198.063
199.584
190.37
197.189
193.635
177.574
183.515
195.731
191.08
194.396
189.353
193.875
208.368
207.439
212.551
195.88
201.468
193.795
204.326
203.911
201.181
198.027
199.027
197.816
197.325
202.402
188.668
192.021
195.676
191.759
189.935
211.746
205.064
195.507
199.012
204.467
197.364
191.201
177.367
189.232
177.405
192.22
196.966
202.078
203.049
199.071
196.79
186.851
188.474
186.463
206.192
208.132
206.412
203.462
218.481
211.636
223.725
161.316
170.814
166.223
167.431
153.295
185.315
202.303
211.997
200.989
194.568
219.205
211.739
223.484
162.063
182.862
171.933
205.35
186.713
212.737
212.443
223.186
217.123
216.421
221.321
216.249
221.438
239.025
240.208
247.462
227.606
233.06
214.544
209.869
221.718
217.105
231.673
226.523
231.641
229.606
231.947
228.705
157.11
156.276
156.368
153.59
159.039
172.256
160.802
165.144
164.435
158.807
170.342
166.749
170.546
166.055
160.091
151.704
157.779
156.615
213.342
204.391
209.546
215.786
216.281
176.702
180.646
177.762
188.496
197.298
203.905
216.643
212.608
194.376
187.181
202.828
195.732
209.7
169.617
200.741
183.792
166.563
168.619
215.977
232.429
224.439
214.759
218.709
206.98
177.654
190.045
214.203
222.916
209.117
217.125
190.498
177.513
151.012
162.965
162.965
151.011
151.535
144.56
146.888
147.241
144.898
156.001
144.908
147.72
147.667
143.798
145.688
144.209
145.684
211.026
232.811
223.454
214.417
217.275
220.76
240.18
230.829
239.152
246.494
231.189
220.667
225.749
243.575
250.439
240.804
249.769
231.248
