# vtk DataFile Version 4.2
vtk output
ASCII
DATASET POLYDATA
POINTS 642 double
-113.436 212.492 62.7947
120.192 214.693 61.163
-102.88 -213.448 -3.14687
114.8 -219.941 -5.33533
2.36125 -143.372 274.153
0.0277597 172.172 247.125
-0.472783 -144.884 -274.174
-2.62893 137.973 -273.151
202.083 -0.452502 -193.547
214.595 3.69485 180.857
-191.995 -2.79884 -192.274
-212.416 23.0403 177.741
-195.158 141.36 127.316
-149.63 92.3635 251.94
-86.2746 247.297 159.847
90.3267 247.109 160.836
0.153583 251.047 59.8891
87.5037 169.409 -183.507
-75.3259 171.068 -180.096
-142.3 84.8606 -267.409
-165.301 102.761 -129.41
-190.836 -5.2419 24.2547
150.838 97.8958 251.518
204.73 144.723 127.755
-135.598 -81.4911 254.781
0.388906 -17.794 310.123
-168.96 -107.283 -129.103
-170.103 -113.555 101.608
-1.42328 1.29673 -328.858
-146.316 -91.1941 -268.375
175.825 107.864 -139.559
152.535 90.7899 -271.317
183.132 -116.979 100.705
145.087 -81.4285 260.184
74.6902 -202.768 146.026
-68.748 -199.45 145.556
2.74767 -271.623 -5.54897
-65.2956 -199.417 -157.603
74.2064 -207.509 -144.528
152.639 -90.9125 -271.224
165.262 -106.366 -122.092
204.03 -2.54822 23.3224
-158.902 184.455 96.5135
-158.143 201.794 140.617
-106.852 239.558 113.803
-199.752 51.1963 215.617
-191.419 123.523 184.601
-214.842 73.8615 160.802
-46.5023 218.971 217.537
-122.665 179.945 213.628
-85.2157 134.166 259.327
-42.6526 268.406 113.533
-61.1613 242.348 63.3436
48.4177 218.46 217.543
-0.0670292 260.718 168.554
66.4074 241.484 61.1891
43.678 267.814 113.412
113.78 240.877 111.929
-15.1503 193.79 -50.0437
-81.9983 146.368 -68.5502
86.0466 154.609 -74.4375
20.7799 196.326 -48.637
-51.1212 167.326 -226.893
-2.13651 176.69 -176.579
58.1879 166.899 -226.007
-131.583 141.257 -160.858
-154.641 156.043 -22.8228
-78.8541 119.989 -284.253
-112.61 147.312 -225.713
-189.66 56.0196 -157.252
-165.721 99.5796 -202.208
-185.012 39.396 -229.997
-175.501 129.712 59.0246
-198.746 -2.45371 -114.296
-194.948 64.877 -74.6992
-202.789 78.4706 94.3274
-208.692 18.8276 120.252
165.991 203.629 142.413
168.18 187.974 94.3457
89.3714 135.739 259.269
129.519 181.785 216.649
215.048 90.5247 150.244
197.189 132.306 186.072
197.719 47.5235 217.769
-86.951 41.4887 288.529
-0.127528 75.3175 281.939
-187.465 -34.1728 217.105
-153.12 1.65616 265.942
2.36908 -85.471 311.961
-78.7203 -51.5255 300.981
-70.2613 -119.423 273.501
-191.6 -49.7398 75.0938
-194.365 -45.9151 156.959
-190.268 -64.2928 -167.24
-183.249 -47.695 -77.4967
-142.806 -170.803 47.5536
-167.4 -128.574 4.76097
-138.316 -171.461 -42.3495
-154.952 -1.2274 -284.919
-187.118 -45.8392 -230.19
-3.46689 79.9197 -317.265
-84.5193 49.3996 -320.248
-82.4091 -126.444 -285.2
-86.2388 -49.2083 -317.773
-1.32594 -82.4449 -314.508
123.676 152.973 -228.166
88.485 122.224 -283.437
163.512 158.754 -25.297
143.157 144.613 -169.776
197.426 50.4885 -231.354
182.008 106.971 -205.348
199.619 64.7346 -169.549
152.949 -176.903 42.9509
137.19 -168.957 127.18
100.284 -218.22 68.2263
195.019 -38.5472 223.625
174.044 -95.7908 195.046
204.353 -48.9963 157.359
38.5328 -174.408 220.49
111.407 -145.292 219.069
73.2303 -119.265 275.219
35.5003 -244.816 58.9046
57.8177 -256.714 -7.58067
-35.9883 -172.372 220.662
2.66546 -214.474 155.382
-48.4651 -253.882 -6.27784
-29.3511 -242.619 58.779
-92.5082 -213.508 69.2057
37.5011 -257.318 -73.3047
95.3422 -230.013 -70.7433
-84.6034 -223.19 -71.924
-29.4941 -255.296 -73.224
51.8432 -172.081 -233.881
1.53795 -229.3 -137.844
-57.9005 -174.104 -231.611
129.455 -160.863 -147.273
148.959 -180.94 -40.4442
84.3442 -123.831 -283.908
124.753 -154.683 -228.622
198.522 -61.6232 -178.332
182.616 -105.702 -209.375
197.885 -51.385 -230.972
178.739 -137.03 2.6065
209.298 0.282696 -116.456
196.051 -47.6058 -68.407
205.173 -59.3197 71.9457
219.083 10.5614 110.579
84.8231 -50.6245 303.196
157.258 -5.56743 272.358
90.9734 37.911 290.546
-129.512 -163.012 127.969
-105.573 -143.436 217.901
-166.601 -94.9928 190.266
-118.978 -156.222 -228.868
-132.915 -147.077 -157.534
-172.594 -106.764 -204.074
159.011 0.00771497 -281.796
88.5034 -52.4316 -316.712
88.1462 52.5366 -316.627
212.298 80.4755 90.9962
199.685 64.503 -73.6761
183.886 135.183 56.1441
-136.02 201.036 76.7274
-136.049 213.851 107.405
-111.205 227.547 87.1374
-181.716 170.774 133.27
-160.664 193.502 124.785
-179.481 163.6 116.794
-100.168 248.089 132.739
-133.274 223.329 129.079
-125.623 228.664 150.137
-213.961 34.1453 192.485
-217.803 62.9792 182.236
-218.72 48.9576 170.697
-172.872 109.206 221.519
-197.54 85.8747 203.22
-176.908 71.2727 237.236
-204.982 111.136 142.018
-209.974 98.3594 167.484
-200.133 135.965 148.814
-23.8016 197.456 236.698
-65.5498 181.109 238.485
-43.6834 155.153 252.211
-104.578 217.792 188.503
-86.2643 202.627 216.37
-66.7613 235.487 191.852
-118.409 113.585 259.493
-105.155 158.903 239.777
-138.333 136.894 235.61
-177.936 167.203 161.264
-160.292 153.489 202.163
-143.577 195.196 176.129
-83.2221 245.406 88.7833
-89.1462 229.251 63.0157
-64.7999 265.247 133.12
-74.1452 257.69 114.737
-32.2792 249.317 61.9982
-51.7676 257.874 90.4879
-21.9554 262.765 89.9264
24.6052 197.316 236.735
-0.0256413 222.149 218.86
46.3885 258.006 167.056
24.6518 243.688 195.592
70.0177 235.152 192.168
-24.3066 243.719 195.599
-45.2981 258.405 166.852
96.0625 229.168 60.0094
89.7693 245.433 87.7025
118.827 228.931 86.131
21.5691 262.739 89.4436
54.9279 257.122 89.6911
33.5976 248.987 60.238
105.571 249.008 132.37
79.2018 257.443 113.614
67.328 264.514 133.034
-24.2059 274.086 136.353
24.0311 273.819 136.505
-0.463505 270.659 114.35
-74.2791 219.479 37.1205
-99.9679 204.048 36.0959
-14.8757 232.247 26.9991
-41.3165 229.824 33.694
-80.9348 166.897 -162.314
-36.3984 181.054 -62.6223
-50.6287 178.931 -148.484
101.333 206.763 29.5635
83.8278 216.696 31.125
60.3619 178.974 -146.462
57.3309 174.187 -59.0973
93.8123 168.885 -157.944
45.4744 229.593 31.4215
17.192 232.643 25.6578
-28.7466 156.067 -250.384
-0.877219 167.253 -227.062
28.9602 156.301 -248.807
-47.4468 176.411 -177.432
-29.376 170.937 -204.396
-66.3236 170.292 -203.35
77.2186 168.947 -207.066
30.1498 169.944 -205.895
53.0924 172.663 -179.934
2.17041 196.986 -47.0202
22.1271 184.4 -131.946
-22.5709 183.24 -133.865
-138.149 143.394 -37.6092
-132.651 181.934 40.1792
-105.076 158.5 -175.899
-117.981 147.754 -149.717
-153.705 140.51 -92.1617
-152.672 135.488 -114.107
-149.847 126.571 -139.063
-43.5825 130.425 -281.035
-66.1019 150.007 -255.991
-129.716 120.335 -248.946
-99.2288 137.366 -255.568
-111.554 104.336 -279.738
-82.6164 161.439 -228.006
-93.3549 162.49 -202.695
-192.466 30.463 -177.108
-186.95 50.3841 -199.949
-190.257 17.4583 -212.64
-166.547 101.443 -167.382
-178.338 77.9239 -184.968
-182.667 76.4615 -141.137
-168.038 63.2179 -249.56
-177.111 73.3241 -217.499
-160.95 95.6123 -233.392
-123.732 147.086 -193.952
-143.465 125.586 -214.918
-148.214 126.184 -181.852
-150.49 171.698 52.0608
-143.106 115.354 -42.4721
-154.356 163.097 16.0271
-169.547 158.713 78.1512
-187.505 138.454 99.6898
-196.4 -2.02636 -147.57
-198.852 31.9808 -130.012
-180.084 41.8057 -34.8641
-194.843 33.8815 -106.843
-188.144 -19.7088 -79.0934
-193.901 54.3967 -113.6
-191.643 60.5414 -97.3752
-213.792 51.6972 155.611
-211.537 27.6759 160.793
-200.759 112.339 116.258
-208.498 79.707 136.644
-205.388 10.1051 81.1693
-208.236 46.9573 110.464
-201.426 40.2266 69.8803
-194.748 80.8416 -2.08044
-189.093 82.347 30.2389
-192.152 104.455 74.1114
144.247 216.498 105.047
144.776 203.733 76.4425
131.335 229.04 151.882
140.526 225.83 127.531
188.629 167.712 113.551
169.472 196.81 121.916
190.861 173.888 134.19
45.9842 155.209 252.005
69.9064 180.844 239.17
143.142 142.332 237.484
110.821 160.991 241.926
121.055 118.423 260.136
91.8042 202.299 217.829
110.61 217.888 190.526
214.143 43.3446 168.365
212.673 70.097 183.183
211.286 22.0402 196.865
208.938 141.985 150.395
212.771 111.934 165.798
213.972 120.618 138.273
177.025 73.6413 236.788
198.377 95.3598 202.866
176.569 117.665 221.877
151.184 196.783 179.948
167.39 158.603 205.153
186.271 170.706 165.23
-50.1876 108.236 270.768
-0.0458378 127.487 264.096
-121.715 72.5832 274.671
-91.1705 89.5837 275.755
-0.298089 24.5034 300.029
-48.8525 54.891 286.957
-44.4623 9.98479 302.4
-203.33 -6.84364 195.007
-195.148 8.9956 217.394
-146.29 -41.4133 263.862
-172.265 -18.0319 244.76
-163.812 -57.6218 237.16
-175.569 29.3177 243.018
-155.289 49.2765 261.999
2.30548 -118.286 295.588
-31.6003 -104.062 295.441
-28.7679 -133.391 275.582
-37.3221 -35.7486 308.551
-32.8934 -69.9418 307.66
1.64628 -55.2371 318.234
-104.597 -102.375 267.178
-75.7523 -87.1705 291.256
-109.825 -68.2494 282.022
-121.718 21.8936 282.798
-117.348 -25.9777 287.975
-83.5746 -7.598 302.165
-205.004 -13.002 137.392
-203.85 -11.8899 171.141
-194.074 -19.7218 55.3309
-204.906 -16.57 96.0653
-183.01 -77.6175 133.491
-196.904 -47.1541 114.042
-182.62 -84.4196 88.2736
-192.75 -39.1771 -179.295
-198.032 -33.9739 -135.145
-175.27 -86.7121 -107.738
-191.707 -54.7981 -132.318
-181.957 -85.2478 -155.202
-196.721 -24.4058 -103.919
-192.063 -27.2242 -33.4128
-125.456 -190.651 23.2296
-142.276 -171.913 3.07272
-121.82 -194.428 -21.5074
-169.602 -124.355 54.0506
-157.035 -149.103 27.997
-157.334 -144.858 71.2947
-154.699 -136.943 -83.0687
-156.245 -149.44 -19.6409
-165.922 -120.37 -54.8717
-187.708 -57.3528 9.06332
-175.936 -97.0894 -27.8398
-177.776 -95.2013 36.3762
-188.695 -2.39232 -234.822
-190.278 -23.9956 -212.659
-150.75 43.039 -279.364
-173.164 19.74 -257.73
-172.003 -69.1789 -249.979
-174.861 -23.6775 -257.981
-152.296 -45.8855 -278.883
-3.27367 112.131 -297.541
-45.8619 100.965 -305.408
-48.4151 27.1457 -328.856
-47.1294 65.8436 -322.658
-2.40969 44.5071 -328.083
-83.2473 86.7292 -306.262
-115.951 69.4111 -298.157
-45.6394 -136.96 -281.509
-47.7721 -106.027 -303.693
-0.773124 -117.884 -296.665
-118.654 -73.0301 -297.836
-86.2446 -91.55 -305.22
-115.339 -110.638 -280.896
-1.38081 -42.6556 -326.38
-47.9525 -66.211 -319.468
-48.5787 -24.5336 -328.585
-122.384 23.1983 -306.556
-87.8137 0.600646 -325.174
[...]
POINT_DATA 642
SCALARS Mean_Curvature double 1
LOOKUP_TABLE default
0.00740777
0.00726821
0.00694241
0.00881237
0.0202825
0.0022631
0.00636849
0.00600088
-0.00184525
0.0133736
0.000543999
0.0130853
0.014765
0.00949091
0.0115553
0.0108205
0.0066917
0.00723214
0.016347
0.0101662
-0.00322696
-0.00385932
0.00834405
0.0128649
0.00995027
0.00514533
0.00712902
0.0051969
0.00179297
0.0108806
-0.00438869
0.0119527
0.00734085
0.0110523
0.0067196
0.00665336
0.0290792
0.00450075
0.0104964
0.0114052
-0.00316788
-0.00138818
0.00633206
0.0256242
0.00788958
0.0129208
0.00786981
0.0169279
0.0107299
0.00794579
0.00877254
0.0154828
0.00903444
0.00901866
0.00630997
0.00721776
0.0131128
0.0101297
0.00944804
-0.0145112
-0.0108735
0.0109521
0.0162468
0.00191018
0.0145089
0.013502
-0.128017
0.0118336
0.0151307
0.00681824
0.00978688
0.0178559
-0.00568206
0.0128549
0.0682019
0.00540721
0.00360041
0.0193175
0.00773854
0.00712133
0.00914326
0.00288764
0.0110455
0.00669914
0.0047564
0.00081221
0.0143174
0.0109089
0.0182779
0.0114697
0.0102869
0.00116076
0.0031695
0.00975016
-0.00786636
0.00931852
0.00658688
0.00431702
0.0133887
0.017005
0.00826788
0.0125908
0.0128349
0.00857852
0.00513936
0.0183586
0.0120762
0.0273471
0.00731988
0.0208266
0.0174573
0.00700257
0.00726029
0.00610349
0.0079621
0.0154506
0.00630743
0.0031471
0.00441717
0.00728934
0.00826761
0.0031079
0.0139788
0.00451173
0.0112269
0.0149659
0.00196103
0.00889518
0.0135723
0.0120221
0.00923175
0.0146306
0.012174
0.00759249
0.00973124
0.00185707
0.00689053
0.00829561
0.0187813
0.00800898
0.0263559
0.0211449
0.0088415
0.0134178
0.00176922
0.00612327
0.0115911
0.0100987
0.0110503
0.00416528
0.00573864
0.00816796
0.0104575
0.0201652
0.00180709
0.0143529
0.00603063
0.0106312
0.00988262
0.00442774
-0.00743428
-0.00434959
0.00790676
0.0058011
0.00990675
0.0280834
0.00438042
0.00157197
0.0225875
0.0157682
0.017993
0.0257907
0.0289438
0.0365817
0.0076662
0.00746222
0.011091
0.00633583
0.0211494
0.0239735
0.0113433
0.00811831
0.00138651
0.00803143
0.00913264
0.00947194
0.00961074
0.00843207
0.00905365
0.0116828
0.00770975
0.00696662
0.0104832
0.00901034
0.0235161
0.00923987
0.00873755
0.0088823
0.00778673
0.0109475
0.00744587
0.0100884
0.0107865
0.00846072
0.0109883
0.0109872
0.00910537
0.00992804
0.0094756
0.00778604
0.00656975
0.00796717
0.0214049
0.010228
0.0202124
0.0234566
0.0229873
0.00736092
0.00283736
0.00217921
0.0053922
0.00281887
0.00217681
-0.00119152
0.0160048
0.00412883
0.00435191
0.01136
-0.00598356
0.00824554
0.00155602
0.0069489
0.00830935
0.0128853
0.00766359
0.00752569
-0.00123479
0.0101259
0.00674761
-0.000544233
-0.00189922
0.00293349
0.0034835
0.00315828
-0.0138671
-0.00390776
0.0130679
0.00156769
-0.0627731
0.0941612
-0.0112365
0.00790004
0.0134376
0.0127877
0.01205
0.0107745
0.0185952
0.0115152
0.00454409
0.00834873
0.0063745
0.00464145
0.00541287
0.00899663
0.0127194
0.0135848
0.0162011
0.0128126
0.0131337
0.0103444
-0.014853
-0.0211627
0.0492519
0.00921126
0.00604359
0.000272688
0.0161799
-0.0114954
-0.000864544
-0.0171923
0.0275304
-0.0175017
0.000165301
-0.00164269
0.00661381
-0.0011349
0.0102624
0.00468596
0.00243711
0.0375374
-0.0247075
0.0128119
0.00777841
0.00781763
0.0139235
0.0176301
0.00579531
0.0097162
0.0217711
0.000549724
0.00750288
0.010894
0.0103153
0.0116171
0.00863574
0.00824034
0.000957682
0.0159215
0.0134402
0.0247844
0.0180193
0.0186349
0.00730746
0.00832339
0.00969491
0.00820121
0.0101029
0.0129173
0.00217909
0.00132787
0.0122463
0.00742521
0.00409914
-0.000229673
0.00553835
0.0170799
0.00751071
0.00953431
0.0107402
0.00878479
0.00498602
0.0126456
0.0179605
0.00775374
0.00776963
0.00432392
0.00778279
0.0221717
0.0114597
0.0112544
0.0106966
0.00735252
0.0110163
0.0133106
0.00450958
0.00321943
0.000785642
0.0116671
0.00263356
0.00728126
0.0038432
0.00231166
0.0156917
-0.00123287
0.00585697
0.00566246
0.0357004
0.0223745
0.00417906
0.00675031
0.00591993
0.00855774
0.00449914
0.00646661
0.00309877
0.00791852
0.00438287
0.00254107
0.00313545
0.000243929
0.020976
0.00247627
0.00971749
0.00805393
0.0130014
0.0100543
0.00681913
0.00701132
0.0100972
0.00676526
0.0115518
0.00833421
0.0125371
0.0112548
0.00788971
0.0089497
0.00633188
0.0106922
0.0127715
0.0116916
0.00632953
0.00681238
0.00788309
0.0090824
0.0127488
0.0115751
0.010556
0.00423225
0.0151908
0.0233084
0.0124227
0.0134092
0.0122884
-0.0037723
-0.0164768
-0.00860404
0.0565662
-0.0596557
0.0032313
0.00642784
0.00643982
0.0152563
0.00392692
0.0159676
0.0195378
0.0138114
0.0045387
0.0118486
0.00547171
0.0144785
0.0109702
0.0182178
0.00683641
0.00816251
0.00516925
0.00578527
0.00578979
0.0047189
0.00772121
0.00701054
0.00665305
0.0210836
0.0093164
0.00674409
0.0119904
0.0115643
0.0128138
0.00427896
0.00615257
0.00368311
0.0107602
0.00667212
0.00936089
0.00530229
0.00677843
0.00514253
0.0107473
0.0106317
0.0107226
0.00441858
0.00738828
0.00506108
0.00301766
0.0105767
0.00654016
0.00653256
0.0185268
0.00708287
0.0132426
0.00743779
0.0102957
0.00639708
0.00559378
0.00435134
0.00768681
0.00616169
0.010054
0.00247083
0.00336158
0.0129514
0.00771827
0.0190935
0.006841
0.00784545
0.00735646
0.0051481
0.00551155
0.01093
0.00670156
0.00639575
0.0101629
0.00493623
0.00831634
0.0128759
0.0110077
0.00448155
0.00432304
0.0103607
0.0112165
0.00583746
0.00409559
0.0118405
0.00985744
0.00445066
0.00865216
0.0088265
-0.00400662
-0.0138408
0.0215134
-0.0124201
0.0151115
0.0117872
0.0138977
0.0128371
0.00765848
0.00744372
0.00385059
0.00643576
0.00575134
0.00565526
-0.00565561
0.00942996
0.0104863
0.0109144
0.00990648
0.0121646
0.0133237
0.0181539
0.00570706
0.0185563
0.00629421
0.00216298
0.0137691
0.00298825
0.0129537
0.0264756
0.0176883
0.00922843
0.0242458
0.00678768
0.00811876
0.00663093
0.00988249
0.00907735
0.00365636
0.000160901
0.0152659
0.0122533
0.0279602
-0.0173332
0.00766502
-0.00561945
0.00811298
0.00243228
0.00835632
0.00731361
0.00234068
-0.000428421
0.0078607
0.00334865
0.000448251
-0.000665408
0.00939069
0.0113563
0.00918254
0.0110946
0.00169677
0.0137124
0.00533721
0.00850523
0.0113435
0.0136156
0.00183734
0.0033638
-0.000697355
0.00666086
0.00976881
0.0151403
0.0102035
0.0155303
0.0102386
0.00591259
0.00601812
0.00590899
0.00603392
0.0100865
0.0105841
0.0115643
0.00738468
0.00441175
0.0115604
0.00342984
0.00654133
0.0120558
0.010152
0.00508646
0.00961115
0.00465011
0.0130864
0.0109203
0.0217458
0.0109175
0.0117238
0.00567317
0.00356852
0.00350135
0.00779471
-0.0133802
0.0130922
0.0176407
0.0168439
0.0117608
0.00686832
0.00975406
0.0087995
0.0197705
0.0144488
0.0125516
0.00669096
0.00681136
0.0126344
0.00954962
0.00834635
0.00461653
0.0106903
0.014849
0.00521047
0.0147302
0.0134837
0.00645899
0.00902147
0.008034
0.00558872
0.00812748
0.000477568
0.00233744
0.0104757
0.0119584
0.00357957
0.0103817
0.00935397
0.0154372
0.00846293
-0.00862906
-0.016887
0.0067828
0.0114356
0.0501352
-0.021653
-0.0288829
0.0345758
0.0106519
SCALARS CoVolArea double 1
LOOKUP_TABLE default
814.998
871.382
984.543
904.578
842.049
1496.05
1287.61
1378.19
1110.29
692.394
1004.55
519.631
728.62
1535.08
1412.98
1504.09
1226.96
879.186
720.075
1479.22
2194.29
2834.82
1716.67
741.199
1404.55
1851.27
1518.86
1556.71
2210.64
1544.55
2201.12
1436.07
1573.6
1360.54
1619.05
1624.48
683.895
1944.12
1823.55
1456.02
2615.23
2945.75
1133.87
1080.23
881.214
1291.31
1617.81
609.564
1485.16
1762.76
1704.35
876.854
986.962
1578.2
1587.04
1136.72
957.834
898.836
2030.7
5222.49
3359.29
2759.35
1069.88
1856.23
1165.31
864.562
893.315
1380.38
1108.94
1090
1012.11
1058.33
2965.5
1006.03
1264.54
1646.73
1274.71
1206.28
1077.55
1714.88
1693.63
1108.98
1459.98
1579.31
1894.63
2779.03
1191.52
1598.92
1214.82
1652.49
1429.18
1861.5
1233.14
895.834
2529.99
1165.15
1581.94
1706.78
1633.86
1083.18
1810.57
1695.73
1400.9
1815.27
1993.61
1072.62
1461.89
1703.92
955.988
1138.75
904.051
983.045
1275.3
1708.29
1416.05
1066.79
1402.33
1307.3
1475.37
1512.02
1539.95
1605.28
1060.93
1448.06
1523.29
1009.83
1582.59
1365.25
1159.81
1111.86
1298.42
1103.98
1730.61
2148.41
1450.54
2223.94
1260.42
1516.29
1142.57
757.563
670.516
1123.62
1399.85
1172.71
2575.52
1710.75
1354.57
1654.43
1555.41
1947.12
1667.26
1391.98
1234.83
1064.64
1803.34
847.872
1950.47
1860.99
1849.6
1490.27
1140.43
3279.05
1081.92
988.832
930.956
800.147
789.02
849.895
898.637
805.171
1344.36
846.76
869.828
444.856
1659.17
1369.4
1387.54
769.947
1031.19
1037.53
1504.76
1633.51
1902.51
1686.18
1557.99
1463.4
1474.35
1592.93
1696.37
1601.08
1966.72
1852.32
941.183
900.134
1059.99
818.158
1025.28
894.938
1062.63
1562.03
1509.57
1552.59
1545.24
1552.55
1498.59
1479.39
926.152
1000.22
929.992
1124.19
1012.63
1125.91
991.26
887.486
1151.3
1300.98
1344.13
1087.55
2805.02
2742.41
1664.82
1960.47
2349.04
3809.03
1569.1
2381.66
2217.33
2288.39
3588.45
1885
2354.38
1705.09
1436.09
1343.14
1600.27
1120.74
1234.13
803.566
857.73
1342.71
1487.95
2118.73
2461.31
2091.18
3723.05
1667.56
773.471
2576.08
1412.42
1197.06
951.288
1449.78
1250.39
1352.99
1246.71
1381.63
960.018
829.277
1231.06
995.976
930.838
1142.12
1022.81
1106.62
1275.88
972.466
1214.93
994.408
1194.69
1097.66
1070.99
4785.05
1962.73
1285.51
1098.74
1419.84
1076.1
4129.72
1670.35
2350.84
711.605
2345.84
851.193
892.028
1107.13
1078.77
1377.59
1344.25
2770.9
2801.73
2261.64
1534.32
965.6
1056.32
1446.9
905.82
882.544
864.116
900.628
1986.41
1691.11
1605.97
1532.03
1478.94
1603.43
1725.22
1235.78
1317.13
1124.76
974.839
1058.46
691.217
1667.93
1487.96
1634.73
1837.77
1809.84
1554.56
2344.16
2473.65
1643.26
1771.42
2337.52
2289.33
1989.85
942.719
1341.01
1512.9
1411.31
1284.21
1448.81
1582.02
1151.93
1437.73
1282.88
1691.27
1444.39
1323.83
1298.03
1504.54
1504.28
1884.33
1760.06
1923.07
1391.04
985.46
1784.63
1314.64
1457.04
1468.12
1691.25
1207.54
1024.92
2081.64
1292.24
1052.99
1044.29
1821.09
1227.9
1251.14
1266.14
1459.81
1201.85
1284.65
1965.73
1485.61
1828.19
2806.29
2696.04
2167.76
1074.35
948.714
1632.38
1351.28
1333.05
1373.01
1695.51
1732.05
1547.91
1953.31
1610.96
1890.92
1450.73
1629.85
1521.41
1714.34
1756.78
1710.62
1555.77
1408.78
2050.43
1842.68
2047.2
1881.21
1978.69
1916.68
1372.93
1734.86
767.041
918.323
1324.36
1221.53
1397.97
2211.96
4267.03
894.185
1961.75
1381.36
2481.94
812.357
1037.02
826.352
1257.29
1262.25
907.696
1272.04
1072.19
777.252
960.563
923.612
976.46
1181.57
1196.83
1346.89
1280.1
1714.02
1428.67
1413.01
1401.19
1393.55
1656.94
850.462
969.267
883.624
1295.09
1077.24
1176.16
1468.83
1282.12
1651.7
1183.57
1486.57
1250.5
1678
1499.79
1564.23
1403.51
1398.35
1387.53
1857.6
1631.54
1867.54
1361.37
1115.1
1681.64
1519.71
804.851
1193.31
984.963
1202.08
1336.53
1647.3
1464.67
1566.85
1428.24
1630.53
1125.91
1305.82
1279.2
969.104
1134.32
749.035
1382.94
1471.27
1636.87
1830.68
1817.05
1625
1122.73
1078.49
1037.81
1077.74
1442.23
1072.69
1319
1173.58
1172.42
1392.37
1122.85
1787.25
1045.28
990.864
1330.46
2096.08
1375.78
1988.31
2887.41
1990.24
1297.12
2587.47
1752.04
1251.33
1347.37
1338.13
1229.4
1129.82
2001.12
1766.05
2018.47
1992.94
2432.8
1549.25
1350.49
1415.79
1349.33
1399.42
1289.76
1474.22
1133.03
702.612
1007.25
1350.43
546.158
1567.06
1285.93
799.454
1216.62
1454.47
1067.25
1373.21
1145.96
2046.65
1119.82
1196.73
1528.8
1548.35
1025.51
2055.5
1181.84
2508.07
1532.22
2854.4
1327.11
1220.75
1522.95
1447.8
1425.15
1410.62
1930.01
2652.61
2661.98
1965.92
1413.61
1510.96
1596.58
1440.4
1761.23
1294.93
1865.26
1571.18
1285.6
1392.01
2432.88
2141.67
2444.64
1853.23
1818.43
1602.06
1841.63
1849.78
1238.99
1662.23
1372.33
1337.17
1624.5
1385.49
1326.11
1251.96
1373.46
1629.38
979.788
1490.41
1092.21
1074.79
1303.63
1747.27
1486
1665.06
1257.9
1383.78
963.497
1274.42
1386.02
1563.77
1642.26
2099.81
1950.26
2304.03
884.96
1231.96
923.558
756.702
994.898
1329.05
1078.32
1077.22
1392.64
1679.58
1622.18
1609.4
1671.8
1806.97
2133
1911.86
1568.71
1584.32
1847.93
1564.96
1526.75
1829.94
2098.49
2142.03
2268.94
2146.25
1460.68
2416.17
1267.63
1028.83
998.176
1241.24
2780.53
906.582
1693.03
3566.07
1096.59
1143.34
1210
1901.91
5298.59
1907.11
3431.85
1691.11
SCALARS SignedDistance double 1
LOOKUP_TABLE default
111.959
110.333
101.06
96.3391
79.9932
81.8632
80.9556
85.9844
100.654
99.197
104.563
106.799
107.339
74.2667
81.9305
79.6152
109.945
110.196
116.398
80.8188
121.747
118.502
74.0475
103.043
82.5919
77.6428
121.75
107.433
68.9023
76.8154
114.299
73.4994
104.168
78.9064
91.0144
93.3217
90.0221
111.408
99.5179
73.5907
114.184
116.344
107.999
99.8542
99.5036
86.2086
90.2005
108.402
72.788
75.3785
78.309
99.0439
111.021
72.938
76.5627
109.648
98.3093
97.9655
143.629
139.97
141.867
143.787
107.933
120.927
107.532
117.771
153.704
76.9844
101.363
109.58
104.54
98.3644
117.007
123.148
152.983
114.461
108.323
93.9658
105.217
78.8918
72.784
99.6761
83.1649
84.8719
80.353
80.9145
93.6543
76.4834
70.2655
72.382
78.1666
116.21
104.746
108.616
128.137
105.292
109.958
105.171
76.8281
99.3552
70.2968
65.962
73.1823
67.39
69.7673
99.1165
78.5507
155.919
109.866
95.605
102.814
105.877
99.514
95.2212
93.5151
89.5069
93.9472
100.845
87.741
88.8506
77.3101
94.0517
92.135
89.7159
90.8843
95.6264
95.9496
96.5452
87.9652
93.0637
98.2539
91.9581
98.5044
89.3758
100.523
115.88
99.9062
74.8338
101.285
104.655
104.801
96.1796
106.326
119.746
127.435
107.723
108.373
72.6335
73.2941
80.5594
98.8329
91.4342
100.736
99.487
116.855
104.119
73.0152
70.1284
69.743
108.977
143.25
114.099
110.659
103.06
106.523
104.53
102.293
105.911
95.3821
98.9684
91.5095
101.717
104.529
109.229
78.7224
85.927
76.7417
106.164
105.529
103.374
76.747
77.0277
80.4774
75.497
73.779
73.2016
74.498
74.8477
74.6431
90.9814
78.8006
81.1058
105.147
111.306
94.1975
98.144
111.112
104.062
104.063
76.739
72.9954
76.5928
72.4447
73.0271
72.4761
76.6198
110.435
103.637
104.582
102.686
103.038
109.508
92.97
97.2803
93.2919
93.2573
92.9138
98.024
115.969
116.413
117.968
116.913
119.624
145.813
133.26
116.439
115.624
128.7
139.619
116.191
114.407
117.843
96.719
107.894
96.5951
120.592
111.765
111.195
109.78
110.79
113.49
143.19
140.902
142.781
146.31
118.273
115.037
120.027
156.023
142.044
124.006
82.712
91.9076
88.8077
87.3286
76.4478
103.397
108.333
105.015
103.194
102.761
110.947
106.007
116.132
88.7998
101.46
97.2822
109.615
102.918
111.335
118.156
138.525
136.647
113.521
111.219
109.931
119.11
135.566
125.965
132.327
127.377
135.164
108.956
108.308
109.534
107.317
116.951
110.026
117.653
146.087
127.543
117.563
100.868
108.047
86.0209
95.8901
102.624
98.9018
99.4118
80.3108
77.2308
72.0383
74.9647
74.0754
72.8456
73.7467
98.9817
99.4106
95.795
99.0316
97.1538
103.605
77.1304
85.0534
76.5821
77.422
74.1076
85.8063
80.2588
80.3468
74.1195
79.7762
80.7196
81.488
80.2845
101.521
92.139
79.2575
82.2485
87.1409
81.7563
75.8131
74.0096
73.7352
78.8899
76.3961
73.8486
75.6022
79.2333
73.1564
75.5032
75.1063
73.9414
75.515
105.13
103.587
118.512
115.008
106.509
111.292
110.806
105.341
114.869
124.301
114.843
111.82
126.74
127.132
102.214
104.438
102.452
110.635
106.847
105.112
119.946
107.277
116.943
114.32
112.504
112.654
100.993
102.801
76.9743
87.1648
85.9945
88.3155
76.9513
76.9105
73.9853
68.8816
68.4269
68.0859
69.5132
70.8988
78.1242
71.2201
73.3572
68.0375
67.1504
72.7507
68.7582
69.7566
68.5998
69.5611
66.2318
69.3448
92.6252
82.2409
107.409
104.631
72.1634
85.0481
83.3847
115.213
136.076
115.482
131.603
146.421
114.504
108.451
99.7026
101.557
102.51
90.5025
97.4416
81.3083
108.733
104.175
106.599
106.753
106.861
99.8558
97.264
95.9529
95.5343
99.635
98.4376
102.277
92.8376
94.8891
92.306
96.7254
97.9409
99.362
89.0982
93.7194
82.888
99.479
97.0356
97.9927
85.1282
83.6682
78.5561
90.5373
87.9648
89.9738
77.2214
83.3393
84.6553
96.0991
91.135
93.1577
94.9339
94.5118
93.4077
93.4909
90.472
93.0195
91.4205
85.9012
87.5583
91.3131
90.6471
91.6997
89.6034
90.7693
99.21
98.2669
99.999
92.646
95.1671
92.1183
95.8434
95.4232
94.4672
94.0728
94.7934
94.2984
92.3214
94.9574
89.7076
90.037
91.2204
89.5462
87.9227
100.008
97.212
91.4242
94.5153
96.7482
93.4374
91.1187
89.4756
97.8347
89.6799
91.2635
105.639
111.809
115.786
109.841
97.4998
89.6803
87.5717
86.2053
97.6746
97.583
109.992
95.8875
103.949
100.07
114.547
77.9952
85.212
83.6914
84.2928
72.1484
100.389
115.48
102.674
102.92
99.7253
105.253
104.858
105.637
81.7371
101.478
92.2715
111.285
103.254
107.145
99.736
106.377
102.349
102.356
106.724
105.259
110.584
118.871
123.431
126.238
111.101
118.575
104.804
100.524
106.667
105.127
110.882
109.379
111.791
110.913
109.962
110.603
73.4921
72.5023
72.2408
73.2299
75.9021
85.465
75.1128
78.175
78.9788
74.4537
80.1375
79.4814
81.3494
79.9897
74.3854
70.2798
73.9541
76.6026
100.739
95.6817
98.3856
101.497
103.233
84.9112
86.8629
85.256
90.8657
93.375
102.636
103.222
104.011
97.9833
91.6935
96.4073
94.8041
99.8447
85.9193
108.281
100.341
82.5817
84.94
102.128
118.378
113.395
104.43
115.565
103.744
94.7685
100.651
106.481
109.378
107.035
108.052
103.037
95.494
72.4226
81.589
81.5467
72.4155
70.9192
68.2286
69.8068
69.4095
66.1897
73.891
66.1821
70.5583
69.2228
68.158
67.5521
68.059
67.5723
101.118
111.084
109.451
104.631
105.453
111.362
125.814
119.023
123.959
134.063
116.01
107.669
111.034
136.927
140.005
121.07
138.185
112.139
