# vtk DataFile Version 4.2
vtk output
ASCII
DATASET POLYDATA
POINTS 642 double
-108.853 206.476 66.4243
115.878 208.656 64.7744
-97.7987 -207.687 -3.2421
110.161 -214.287 -5.56436
2.48651 -139.052 270.063
0.0298675 169.871 241.357
-0.484939 -140.674 -270.071
-2.72464 133.395 -269.022
194.471 -0.444617 -192.882
207.135 4.06542 180.038
-184.102 -2.84622 -191.494
-204.614 24.959 177.889
-187.862 138.405 128.956
-146.573 90.4777 247.629
-84.0056 242.577 157.694
88.2948 242.353 158.673
0.252223 243.659 63.4003
85.8117 161.405 -182.908
-72.8043 163.089 -179.803
-138.501 82.3563 -263.781
-158.035 98.5332 -129.414
-181.901 -5.60789 25.2955
147.785 96.3324 247.076
197.721 141.857 129.25
-131.682 -78.9014 250.858
0.399253 -18.8705 304.315
-161.459 -103.376 -129.197
-162.849 -110.027 100.774
-1.477 1.37497 -323.62
-142.763 -89.0965 -264.694
168.74 103.935 -139.888
149.298 88.5746 -267.682
176.336 -113.315 99.8367
141.612 -78.7312 256.362
72.2599 -196.869 143.355
-65.9587 -193.514 142.909
2.98629 -264.842 -5.99593
-61.4493 -193.754 -155.599
71.6873 -201.896 -141.193
149.443 -88.7299 -267.553
157.636 -102.272 -121.667
195.421 -2.88037 24.4599
-152.739 179.75 98.6274
-152.972 196.917 140.24
-102.839 233.545 115.369
-195.051 50.6239 212.106
-186.545 121.043 181.954
-206.812 72.8207 162.117
-45.4409 215.337 213.55
-119.855 176.618 209.928
-84.1932 131.792 254.026
-41.2481 261.429 115.188
-58.7528 235.409 67.1559
47.4654 214.801 213.552
-0.075309 255.818 166.035
64.2786 234.449 64.848
42.3792 260.822 114.991
110.174 234.753 113.381
-13.1745 184.659 -47.34
-78.1936 137.378 -67.0582
81.3805 144.958 -73.6022
19.0193 187.306 -45.9283
-50.4662 159.864 -224.567
-2.24746 168.522 -174.99
57.8534 159.333 -223.856
-126.735 134.315 -160.629
-147.248 149.442 -18.7408
-77.3003 116.435 -280.164
-108.867 141.43 -223.409
-182.102 53.5877 -156.514
-159.174 95.481 -201.251
-178.346 37.9021 -227.822
-167.847 126.159 61.1733
-189.945 -2.63493 -115.549
-186.576 60.7071 -74.3785
-194.465 77.2509 95.8314
-200.558 19.3711 120.856
161.352 198.926 141.676
162.366 183.246 96.4327
88.5816 133.411 253.832
127.061 178.469 213
207.518 90.1114 149.806
192.483 130.288 183.347
192.747 46.6704 214.555
-85.973 40.0052 282.731
-0.13036 73.4661 276.073
-181.824 -32.2205 214.171
-149.535 1.82257 261.477
2.49612 -83.8618 306.887
-77.1043 -50.6577 295.799
-68.2547 -116.022 269.204
-183.094 -47.6166 75.8924
-186.923 -43.1715 156.442
-182.422 -62.1417 -167.266
-174.554 -44.869 -77.7824
-136.47 -166.043 46.9688
-159.736 -125.439 4.98297
-131.996 -166.799 -41.4154
-151.042 -1.32207 -280.983
-180.333 -44.9017 -227.981
-3.64039 77.8175 -312.414
-83.0459 48.2716 -315.608
-81.0348 -123.248 -281.064
-84.8799 -48.0959 -312.961
-1.37271 -80.6062 -309.539
120.645 147.146 -225.93
87.4705 118.626 -279.133
158.949 154.615 -23.4373
138.715 137.909 -169.645
191.137 49.6132 -228.897
175.754 102.78 -204.666
191.989 62.4512 -169.481
147.045 -172.37 42.0141
132.353 -164.043 125.18
96.7451 -212.281 66.6087
189.602 -36.735 220.819
168.425 -91.87 193.213
197.217 -46.4804 156.591
37.1682 -168.78 217.187
108.062 -140.28 216.103
71.383 -115.806 270.939
34.0379 -238.2 56.6653
55.1009 -250.313 -8.05969
-34.418 -166.599 217.416
2.82688 -208.182 152.598
-45.1788 -247.481 -6.6493
-27.508 -235.908 56.5699
-88.5976 -207.522 67.7453
36.0108 -251.091 -71.8336
91.3045 -224.546 -69.2697
-80.0525 -217.511 -70.5476
-27.4036 -248.931 -71.7811
51.0359 -165.752 -231.349
1.6442 -223.832 -133.972
-57.6156 -167.738 -228.885
123.244 -155.857 -146.229
142.905 -176.568 -39.3122
83.0219 -120.488 -279.703
121.763 -149.29 -226.213
191.002 -59.1306 -178.801
176.193 -101.304 -209.499
191.519 -50.5966 -228.515
171.346 -134.226 2.79594
200.785 0.341975 -117.716
187.973 -44.9777 -68.2481
197.253 -57.4943 72.4267
211.083 11.1137 111.08
83.5505 -49.7183 297.948
153.817 -5.86204 268.011
90.1709 36.2144 284.764
-124.373 -157.972 126.053
-101.991 -138.32 215.021
-160.513 -91.0066 188.493
-115.455 -150.821 -226.731
-127.741 -140.794 -156.686
-166.041 -102.758 -203.433
155.435 0.00781433 -277.751
87.2516 -51.4508 -311.701
86.8715 51.5648 -311.616
204.321 79.1668 92.4856
192.151 65.4154 -73.9902
176.412 131.924 58.3409
-130.537 195.551 79.482
-130.896 208.481 109.291
-106.805 221.48 89.6399
-175.359 166.535 134.115
-154.9 188.721 126.568
-172.89 159.704 118.972
-96.7583 242.119 132.678
-128.536 217.799 129.951
-121.976 223.839 148.619
-207.438 34.9269 190.311
-211.119 61.9754 180.695
-210.594 49.4839 171.606
-168.823 106.917 217.942
-192.848 84.0181 200.229
-172.938 69.9464 233.326
-197.176 109.494 143.168
-202.842 96.1759 166.424
-193.358 133.299 148.339
-23.3335 194.549 231.844
-64.4501 178.267 233.615
-43.236 152.846 246.566
-101.976 213.881 185.335
-84.3243 199.169 212.434
-65.074 231.288 188.668
-116.404 111.389 254.695
-103.2 156.043 235.312
-135.429 134.228 231.558
-173.218 163.891 159.292
-156.454 150.486 198.872
-139.997 191.53 173.357
-80.0025 238.84 91.392
-85.6189 222.734 66.8093
-62.6229 258.986 132.789
-71.3128 251.174 116.378
-31.0086 242.033 65.7038
-49.8586 250.922 93.194
-21.3065 255.526 92.5575
24.1775 194.406 231.883
-0.0274587 218.479 214.73
45.3914 253.18 164.653
24.1626 239.358 192.273
68.5063 230.892 188.973
-23.7962 239.39 192.281
-44.2398 253.61 164.428
92.8475 222.516 63.6763
86.9341 238.782 90.2545
114.8 222.793 88.613
20.9669 255.545 91.9756
53.221 250.114 92.3078
32.4788 241.699 63.7856
102.584 243.08 132.081
76.7654 250.83 115.107
65.4007 258.195 132.624
-23.6122 267.704 135.72
23.4161 267.403 135.873
-0.485251 263.522 116.044
-70.9334 212.692 41.3581
-95.9867 197.513 40.2417
-13.8606 224.594 31.0918
-39.1229 222.484 37.8319
-77.4051 159.049 -163.057
-31.9329 173.307 -61.0969
-48.4806 170.327 -148.151
97.4415 200.206 33.7443
80.8123 209.729 35.2748
58.7159 170.543 -145.727
53.2206 166.242 -57.2215
90.9609 161.152 -158.155
43.4725 222.299 35.4217
16.5029 224.958 29.6646
-28.5127 150.392 -247.008
-0.918903 159.663 -224.846
28.7113 150.662 -245.434
-46.6464 168.216 -176.201
-29.2828 162.782 -202.888
-64.9448 162.309 -202.038
76.4304 160.748 -206.152
29.9204 161.708 -204.624
52.527 164.544 -178.553
2.69063 187.678 -44.1003
21.7621 175.589 -130.586
-22.0012 174.057 -132.715
-138.867 137.067 -35.6234
-127.775 175.531 43.1197
-101.257 150.945 -176.308
-114.631 139.738 -150.129
-146.145 135.355 -91.8054
-145.136 131.563 -113.463
-143.509 122.033 -137.927
-43.0542 126.24 -276.767
-65.0135 144.991 -252.463
-126.054 116.423 -245.89
-96.7786 132.991 -252.205
-108.813 101.337 -275.867
-80.439 154.81 -225.567
-90.3119 155.255 -201.644
-184.635 29.4938 -176.244
-179.45 48.4664 -199.016
-182.578 16.8094 -211.664
-159.642 97.0773 -167.003
-171.133 74.5949 -184.28
-175.372 72.5718 -140.94
-163.093 61.1994 -246.471
-170.311 70.4538 -215.922
-155.486 92.1055 -230.916
-119.142 140.598 -193.218
-138.184 120.509 -213.204
-142.199 120.71 -181.3
-144.768 165.852 54.0244
-134.933 112.826 -41.9377
-146.827 157.223 18.1038
-162.497 154.688 80.4385
-180.188 135.23 102.058
-188.404 -2.06322 -146.961
-190.53 30.9849 -129.999
-171.765 42.6973 -35.1631
-186.149 33.6963 -108.056
-180.284 -23.5031 -80.2617
-185.781 52.1354 -113.44
-186.423 55.4487 -96.4726
-205.645 51.8845 157.158
-203.466 29.0131 161.564
-192.911 110.476 117.836
-200.521 78.7827 137.922
-196.821 10.5085 82.7753
-200.024 46.5356 111.579
-192.801 39.7633 71.512
-184.723 80.5498 -1.46534
-181.118 83.7855 30.2584
-184.069 101.825 75.9144
139.466 211.04 106.892
139.682 198.201 79.2362
128.107 224.326 150.225
136.22 220.312 127.994
182.245 163.893 115.393
164.042 192.011 123.209
184.895 169.781 134.646
45.6021 152.925 246.358
69.0292 177.976 234.249
140.452 139.922 233.384
109.187 158.188 237.39
119.238 116.465 255.279
90.1801 198.791 213.925
108.311 213.888 187.421
206.648 43.1027 167.738
205.626 69.4951 181.236
204.601 21.6383 194.796
202.541 139.441 149.598
206.034 110.751 164.123
206.374 119.095 138.806
173.029 72.4262 232.83
193.437 94.1226 199.795
172.618 115.859 218.186
147.901 193.013 177.26
163.849 155.792 201.901
181.831 167.407 163.251
-49.9947 106.211 265.024
-0.0456015 125.468 258.33
-119.881 71.1578 269.636
-90.3557 87.7214 270.08
-0.304282 22.8873 294.206
-48.5459 53.0767 281.065
-43.9976 8.59506 296.557
-196.345 -4.96502 193.108
-189.814 9.72917 213.979
-142.478 -40.0472 259.572
-167.729 -17.0803 240.875
-159.111 -55.3012 233.548
-171.119 29.2437 238.892
-151.993 48.5457 257.541
2.42704 -115.355 290.899
-30.3151 -101.506 290.653
-27.3947 -129.537 271.328
-36.4791 -35.9784 302.862
-31.6626 -68.8099 302.363
1.72789 -55.1997 312.663
-101.617 -99.4184 263.045
-73.9036 -85.0575 286.497
-107.029 -66.4926 277.417
-119.476 21.2447 277.693
-114.672 -25.488 283.077
-82.2254 -8.1202 296.729
-197.233 -11.3885 137.226
-196.286 -9.85247 170.825
-185.237 -18.4641 56.4807
-196.522 -14.9935 97.0181
-175.705 -74.3172 132.888
-189.029 -44.5681 114.106
-174.729 -81.6945 88.271
-184.814 -38.5456 -178.662
-189.834 -32.7689 -135.324
-166.992 -83.9288 -108.225
-183.727 -52.0794 -133.11
-174.364 -81.8675 -155.772
-187.796 -23.5286 -105.377
-183.052 -27.0002 -33.0275
-119.856 -185.311 22.9463
-135.955 -167.157 3.25702
-116.073 -189.216 -20.9946
-161.975 -121.094 53.8615
-150.057 -145.106 27.8908
-150.599 -140.815 70.4322
-147.664 -132.714 -82.1928
-149.234 -145.473 -19.0672
-158.079 -117.08 -54.3168
-179.355 -55.5775 9.30425
-167.773 -94.7102 -27.4153
-169.551 -92.8075 36.5485
-181.695 -2.56266 -232.565
-182.536 -23.7459 -211.792
-146.853 41.776 -275.512
-168.149 18.9784 -254.413
-167.297 -67.6324 -246.823
-169.857 -23.2243 -254.6
-148.465 -44.8659 -274.945
-3.42357 108.764 -292.951
-45.3669 98.0006 -300.804
-47.9924 26.6976 -323.679
-46.6398 64.2716 -317.776
-2.5208 43.7004 -322.977
-81.685 84.3826 -301.865
-113.265 67.587 -293.961
-45.1886 -133.184 -277.223
-47.3894 -103.473 -299.001
-0.787547 -114.948 -292.024
-116.166 -71.5038 -293.609
-84.8959 -89.5625 -300.743
-112.803 -107.992 -276.986
-1.43901 -41.7712 -321.239
-47.515 -64.7076 -314.408
-48.1622 -23.9252 -323.446
[...]
POINT_DATA 642
SCALARS Mean_Curvature double 1
LOOKUP_TABLE default
0.00719413
0.00698827
0.00693857
0.00891038
0.0216612
0.00133584
0.00649231
0.00609136
-0.0019978
0.0125238
0.000248086
0.008716
0.0138538
0.00992807
0.0133129
0.0122907
0.00692301
0.00794913
0.0180782
0.0108233
-0.0044798
-0.00430474
0.00860315
0.011991
0.01043
0.00504105
0.00788521
0.00521186
0.00167522
0.0115919
-0.00652928
0.0127428
0.00747707
0.0117521
0.00701356
0.00694947
0.0323295
0.00557805
0.0121056
0.0120246
-0.00310712
-0.00188041
0.00660645
0.0290201
0.00762739
0.0144298
0.00910604
0.0135878
0.011285
0.00816865
0.00894771
0.0151598
0.00907802
0.00946217
0.00701298
0.00712893
0.0125846
0.00993532
0.00993867
-0.0150908
-0.0135822
0.0126093
0.0159509
0.00241038
0.0145227
0.0143137
0.152718
0.0125679
0.015448
0.00780285
0.00968142
0.0188488
-0.00677021
0.0122399
0.067905
0.00550438
0.00409741
0.0213741
0.00802197
0.00687735
0.00953139
0.00219106
0.0125115
0.00789396
0.00445103
0.000765516
0.0159214
0.0115915
0.0197465
0.0121884
0.0108436
0.000842131
0.00311607
0.0105671
-0.00884306
0.00924426
0.00674433
0.00446255
0.0140831
0.0176412
0.00870725
0.013434
0.0135579
0.00885785
0.00531263
0.0201951
0.0122831
0.0743469
0.00740705
0.0222848
0.017699
0.00736931
0.00750247
0.0064039
0.00839502
0.0170956
0.006331
0.00299565
0.00435321
0.00726208
0.00861231
0.00301276
0.0147313
0.00428656
0.0118834
0.0157521
0.00155133
0.00949832
0.0146672
0.0127581
0.0094938
0.0155859
0.0118917
0.00783181
0.00910422
0.00214064
0.00719598
0.00846546
0.0208759
0.00864084
0.0265823
0.0227315
0.00931785
0.0131223
0.00222252
0.00628605
0.0120245
0.0106698
0.0116031
0.00369211
0.00604097
0.00818498
0.010459
0.0222686
0.0027189
0.0144416
0.00618827
0.0108078
0.00998378
0.00437765
-0.0261374
-0.00642861
0.0078613
0.00600641
0.0103673
0.0299639
0.00228288
0.00105175
0.024315
0.0148406
0.0207074
0.0312459
0.0351524
0.0348326
0.00772593
0.00870645
0.0116446
0.00396625
0.0237662
0.0274255
0.0120262
0.00846654
0.00100948
0.00837017
0.00959956
0.00980481
0.0102633
0.00895587
0.00951428
0.0139708
0.00787524
0.00768437
0.0110521
0.00905204
0.0261017
0.00848177
0.00877625
0.00929023
0.00794254
0.0116283
0.00771047
0.0113347
0.0112089
0.0086626
0.0114186
0.0123061
0.0092127
0.010419
0.00987422
0.00814978
0.00665109
0.00809389
0.0233079
0.00983134
0.022185
0.026333
0.0256726
0.00599751
0.00280114
0.00195444
0.005668
0.00291748
0.00199757
-0.00041027
0.0180789
0.00366633
0.0041825
0.0120311
-0.00479301
0.00926764
0.00168497
0.00740825
0.00984649
0.0124959
0.00945602
0.00841073
-0.00231183
0.00965635
0.004929
-0.00176524
-0.00163718
0.00237753
0.00351103
0.00221177
-0.0202919
-0.00680136
0.0128935
8.51714e-05
0.0429223
0.051724
-0.00627957
0.007902
0.0150796
0.0143778
0.013557
0.0113423
0.0197697
0.0121598
0.00469486
0.00830356
0.00537024
0.00438681
0.00533285
0.00934205
0.0144548
0.0133218
0.0171365
0.013529
0.0133778
0.010524
-0.00140874
-0.0227363
0.0266449
0.0094551
0.0059925
0.000771623
0.0173132
-0.0122855
-0.00304994
-0.0215531
0.0313787
-0.0101882
-0.000168802
-0.00213391
0.00697547
-0.000785653
0.0105269
0.00506511
0.00186172
0.0361189
-0.019865
0.0135306
0.00785658
0.00769539
0.0158596
0.0180349
0.00564503
0.00899549
0.0229584
0.000216001
0.00769434
0.0115316
0.0108928
0.0126117
0.00914706
0.00857321
0.00019858
0.0159602
0.0140792
0.0278026
0.0190897
0.0183666
0.00762469
0.00958995
0.0100051
0.00877808
0.0105926
0.0148344
0.00211762
0.00136779
0.0132414
0.0071761
0.00412464
-0.000419284
0.00537937
0.0179918
0.0086309
0.0099741
0.0114098
0.00927307
0.0045678
0.0135425
0.0192673
0.00811199
0.00808745
0.00434442
0.00812496
0.0233499
0.0121612
0.0120083
0.0112673
0.00788656
0.0115964
0.0140739
0.00516281
0.00293635
0.000524778
0.0118237
0.00270239
0.00753218
0.00405933
0.00231844
0.017557
-0.00153137
0.00564231
0.00551
0.0441839
0.0264083
0.00434011
0.00698513
0.00607825
0.00865717
0.00477336
0.00696935
0.00329113
0.00844669
0.00421236
0.002868
0.00322437
-0.000104048
0.0216577
0.00106233
0.0101866
0.00910676
0.015132
0.0113075
0.00690691
0.00724096
0.0104057
0.00669172
0.0121528
0.00871043
0.0133218
0.0118342
0.00795995
0.0092796
0.00667292
0.0113626
0.0136397
0.0122631
0.00653927
0.00678573
0.00802098
0.00941975
0.0134514
0.0122017
0.0118107
0.00433741
0.0146242
0.0249215
0.0132515
0.0152502
0.0138034
-0.00435509
-0.0175177
-0.00841567
0.023369
0.0529175
0.00169449
0.00651677
0.00485774
0.015139
0.00405346
0.0175666
0.0210634
0.0158069
0.00440455
0.0116541
0.00506855
0.0138126
0.0104468
0.0195958
0.00712675
0.00856796
0.00532986
0.00598021
0.00589724
0.00493411
0.00806503
0.0072425
0.00698848
0.0217967
0.00861582
0.00666041
0.0122995
0.0112434
0.0139931
0.00477306
0.00634954
0.0037047
0.0109074
0.00676907
0.00975245
0.00548281
0.00681982
0.00522214
0.0113378
0.0111451
0.0112009
0.00438428
0.00741849
0.005138
0.00275537
0.0109733
0.0066886
0.00694079
0.0198083
0.00727802
0.0140712
0.00729946
0.0108409
0.00668673
0.00568538
0.00446727
0.00803092
0.00636294
0.0102774
0.00217408
0.00326738
0.0137236
0.0081141
0.0204111
0.00700998
0.00855971
0.00764449
0.00521901
0.00556606
0.0118236
0.00681558
0.00654042
0.010851
0.00487931
0.00881588
0.0136738
0.0116275
0.00446999
0.00421917
0.0111642
0.0116196
0.00577966
0.00397024
0.0128359
0.011179
0.00352902
0.00993886
0.00924114
-0.00388863
-0.0160027
0.0242578
-0.0132671
0.017378
0.0122787
0.0149465
0.0137052
0.0075811
0.00773284
0.00472297
0.00668775
0.00591224
0.00588861
-0.00637753
0.00965879
0.0116253
0.012374
0.0107535
0.0127764
0.0139722
0.0198692
0.00609696
0.0188908
0.00472473
0.00184971
0.0125671
0.00312371
0.0149618
0.0289458
0.0207516
0.00903327
0.0264269
0.00602284
0.00841097
0.0068428
0.010478
0.00954494
0.00368653
0.000568626
0.017026
0.0140426
0.0326036
-0.0190273
0.00820652
-0.006151
0.00849878
0.00255985
0.0083822
0.00775608
0.00205496
-0.000943394
0.00832648
0.00291026
0.000769212
-0.00122877
0.00984301
0.0120149
0.00986331
0.0118602
0.00146955
0.015636
0.00539046
0.00881662
0.0119437
0.0144927
0.00182284
0.00327095
-0.000867574
0.0062948
0.0108326
0.0162696
0.0109216
0.0161262
0.0107505
0.00615238
0.00613181
0.00616815
0.00628705
0.010596
0.0110557
0.0121711
0.00719985
0.00449404
0.0110155
0.00349809
0.00594409
0.0127228
0.0106928
0.00513007
0.00990315
0.00468965
0.0142181
0.0105645
0.0249639
0.0120585
0.0134276
0.00569378
0.00377902
0.00372272
0.0083725
-0.0151496
0.0132185
0.0193494
0.0173002
0.0120406
0.00688185
0.00857702
0.00838356
0.0206993
0.0157425
0.0130442
0.00764726
0.0077625
0.0131535
0.010102
0.00862212
0.00454574
0.0111024
0.0160128
0.00537343
0.0158996
0.0142555
0.0067632
0.00933562
0.00840901
0.0056756
0.00850719
0.000843374
0.00168696
0.0106721
0.0129915
0.00317668
0.0116915
0.0111699
0.0190444
0.0074976
-0.00905087
-0.000164086
0.00672454
0.0118808
0.0171373
-0.0243695
-0.0301446
0.0379284
0.0106458
SCALARS CoVolArea double 1
LOOKUP_TABLE default
774.137
832.264
935.479
849.758
772.94
1453.52
1220.01
1311.71
1080.2
640.594
975.827
461.719
659.751
1448.05
1299.23
1394.76
1160.13
822.988
652.336
1378.4
2220.37
2864.5
1631.56
668.696
1316.61
1787.39
1455.59
1491.17
2143.1
1443.67
2195.92
1332.92
1503.81
1266.78
1547.44
1554.04
597.306
1854.08
1728.13
1354.23
2616.92
2977.92
1088.42
953.226
810.571
1186.84
1502.72
537.867
1404.78
1680.77
1635.9
787.036
928.891
1499.5
1474.69
1079.85
869.024
822.109
1885.97
5527.45
3530.09
2618.97
980.513
1823.97
1070.92
788.583
715.727
1290.68
999.687
1015.15
933.601
961.169
2819.76
944.093
1082.61
1609.46
1218.25
1086.66
1023.35
1651.98
1606.1
1043.63
1347.37
1482.98
1821.71
2755.16
1095.55
1508.26
1121.99
1557.64
1344.72
1819.74
1183.33
828.456
2479.78
1099.7
1516.13
1641.46
1537.85
980.483
1731.6
1598.69
1313.3
1723.74
1923.49
952
1376.46
1678.52
885.028
1030.05
807.644
913.936
1208.12
1636.13
1347.4
971.625
1334.91
1250.01
1409.76
1437.75
1458.77
1529.65
990.269
1385.44
1442.25
941.566
1507.3
1295.87
1071.74
1040.31
1230.3
1015.61
1692.23
2084.17
1389.26
2161.49
1190.49
1434.06
1034.54
694.008
579.173
1009.17
1333.81
1108.94
2496.49
1654.2
1289.6
1557.58
1462.3
1876.78
1596.21
1317.21
1160.57
953.129
1771.78
759.777
1863.29
1772.46
1759.23
1447.29
1127.39
3107.14
1033.97
929.992
865.43
693.892
724.761
801.141
794.788
717.767
1219
730.766
745.816
374.355
1576.93
1264.71
1308.83
701.293
907.926
911.649
1432.82
1558.14
1851.91
1592.12
1479.7
1382.41
1394.22
1513.15
1612
1457.86
1870.41
1731.52
871.795
845.64
940.009
738.944
966.263
827.379
993.366
1491.14
1427.99
1441.4
1464.77
1473.62
1417.16
1366.26
867.875
930.674
863.631
1055.64
946.854
1066.41
886.102
806.39
1032.62
1164.39
1208.58
988.785
2831.75
2815.81
1592.62
1882.33
2366.09
3795.49
1439.77
2431.91
2208.38
2186.39
3549.08
1862.11
2290.48
1620.2
1338.48
1252.45
1498.69
1058.37
1189.05
734.238
804.805
1308.37
1450.64
2010.6
2384.24
2012.87
3625.74
1529.94
717.199
2530.45
1385.47
989.42
911.052
1369.16
1150.29
1242.25
1143.76
1291.03
859.259
742.434
1170.91
929.975
871.72
1096.02
961.242
1053.3
1173.46
887.445
1106.3
903.735
1085.37
1022.89
1010.34
4699.41
1853.69
1227.31
1054.57
1346.54
997.707
4208.6
1632.86
2401.07
613.634
2331.4
816.676
857.077
1057.4
1046.2
1322.26
1300.84
2820.14
2657.61
2187.04
1437.27
897.866
1009.38
1329.23
811.279
824.519
788.544
795.27
1940.18
1618.68
1515.66
1450.99
1397.96
1524.96
1634.19
1181.05
1219.92
1030.7
856.388
955.697
617.477
1592.49
1391.76
1547.44
1722.77
1705.73
1419.75
2305.24
2446.2
1553.72
1708.33
2303.04
2249.97
1926.67
848.061
1240.4
1422.33
1326.05
1198.03
1369.64
1490.45
1063.27
1349.83
1200.51
1605.69
1355.47
1239.67
1212.9
1418.41
1410.56
1781.45
1654.08
1825.88
1335.64
937.755
1722.67
1249.93
1407.07
1407.9
1634.58
1153.15
942.952
2061.66
1241.7
1006.99
941.68
1676.78
1165.65
1187.85
1207.96
1394.72
1136.47
1217.15
1896.22
1415.19
1760.68
2746.8
2665.21
2117.91
973.77
891.365
1535.28
1248.45
1226.18
1269.81
1599.93
1659.5
1464
1870.73
1525.21
1817.37
1360.58
1533.75
1441.79
1635.56
1681.2
1616.24
1468.99
1319.53
1986.92
1768.52
1969.75
1773.58
1874.84
1810.67
1273.36
1658.43
686.727
814.865
1231.53
1115.68
1279.65
2187.14
4314.05
853.512
1837.2
1362.89
2421.73
760.976
969.537
751.871
1206
1140.31
803.488
1165.79
1025.26
709.364
912.996
835.631
902.374
1055.88
1129.18
1277.13
1214.35
1644.23
1361.74
1348.67
1330.97
1322.6
1582.07
763.952
900.693
826.662
1207.54
1000.05
1085.8
1404.04
1224.97
1587.25
1109.78
1413.53
1168.97
1607.88
1434.68
1501.39
1319.22
1320.32
1299.97
1785.04
1550.82
1790.37
1295.38
1049.79
1609.27
1453.62
726.995
1122.84
898.894
1129.39
1266.38
1571.7
1395.49
1507.01
1356.11
1555.03
1066.43
1239.52
1217.51
884.341
1062.97
672.958
1313.53
1402.56
1562.64
1745.44
1731.48
1532.84
1051.52
1012.33
946.286
1001.48
1357.01
996.562
1227.78
1114.74
1107.45
1291.85
1049.49
1737.84
971.373
899.272
1248.95
2071.01
1297.31
1922.88
2903.52
1964.76
1186.54
2567.95
1632.05
1148.35
1242.02
1235.34
1161.16
1064.48
1890.61
1693.34
1971.87
1939
2421.66
1468.12
1262.75
1298.48
1254.77
1313.32
1214.19
1374.24
1076.31
626.002
937.245
1329.64
487.756
1549.5
1175.03
687.717
1084.9
1347.97
943.807
1312.06
1075.72
1998.53
1045.4
1126.96
1463.25
1479.06
942.549
1946.25
1085.11
2555.49
1468.51
2845.38
1265.99
1168.95
1455.44
1381.73
1382.26
1357.34
1869.33
2616.47
2593.22
1912.09
1324.39
1413.61
1510.19
1350.15
1678.6
1192.94
1780.45
1489.41
1193.31
1293.47
2398.97
2085.03
2411.23
1793.92
1731.08
1490.99
1739.43
1752.46
1169.65
1591.46
1302.37
1267.18
1553.67
1309.33
1238.11
1170.86
1308.1
1562.41
908.37
1430.54
1036.14
991.779
1214.01
1671.36
1399.68
1590.54
1166.66
1311.49
865.152
1171.66
1267.96
1496.27
1581.38
2035.27
1904.26
2308.24
813.682
1111.1
824.899
689.527
938.007
1270.65
1011.98
959.743
1280.76
1585.07
1521.95
1509.16
1576.06
1728.82
2057.72
1838.94
1484.39
1486.98
1771.11
1465.84
1438.31
1749.96
2020.18
2043.02
2177.27
2047.46
1402.75
2438.54
1205.01
965.809
942.244
1159.65
2753.19
820.52
1699.43
3704.22
1027.37
1097.6
1136.34
1760.83
5204.39
1966.77
3398.28
1640.13
SCALARS SignedDistance double 1
LOOKUP_TABLE default
103.321
101.838
93.1874
88.7568
73.9852
75.5555
75.0855
79.8949
92.8883
91.5932
96.5115
98.7253
99.121
68.0566
76.5653
74.2787
101.654
102.018
108.228
74.735
113.626
109.19
68.0531
95.2493
76.0863
71.6874
113.536
99.1598
63.52
70.9488
106.212
67.8004
96.3947
72.9087
83.8001
85.8841
83.0921
105.1
92.5459
67.9144
106.117
107.68
99.8511
92.9386
91.8185
80.4708
84.679
100.211
66.7933
69.2191
72.2292
91.6339
102.647
66.9686
70.7617
101.283
90.9221
90.5705
134.974
131.403
133.604
135.399
100.362
113.242
99.854
109.412
144.841
70.9229
94.0781
101.509
96.5962
91.3112
108.299
114.314
145.305
105.908
99.9439
87.3908
97.2191
72.7346
66.966
91.9925
77.4107
78.9577
74.3055
74.568
87.4854
70.2837
64.682
66.5562
72.0172
107.525
96.5802
100.199
120.771
97.2326
101.571
96.9914
71.218
92.4947
64.6955
60.5851
67.4098
62.1962
64.1923
92.2536
72.6693
150.184
101.701
89.2576
95.0513
97.6982
91.5685
87.6342
86.0325
83.0872
86.4857
93.1322
80.8767
81.8708
71.3717
86.7515
84.9069
82.6917
83.6422
88.2304
88.7616
88.9505
80.9921
85.6487
90.5355
84.9946
92.1363
82.4335
94.0553
108.705
92.0119
68.9651
95.3821
96.5592
96.7569
89.7945
98.2053
111.183
120.094
99.3667
100.271
67.0275
67.4514
74.5771
91.0242
84.3099
93.1666
93.188
109.153
96.1821
67.3266
64.9178
64.4984
100.605
137.453
105.618
102.181
95.0962
98.4332
96.7597
94.3383
97.5531
88.4697
91.4471
85.7227
95.585
98.3203
100.988
72.6921
80.1888
70.5198
97.8834
98.4786
96.2518
70.9669
71.1437
74.195
69.4388
67.7797
67.3307
68.6249
68.8265
68.4991
85.4648
72.6206
75.2142
97.1325
102.827
87.6539
90.6921
102.718
96.1346
96.1821
70.9577
67.077
70.9945
66.5322
67.3408
66.5637
71.0802
101.975
95.846
96.7032
94.8027
95.2208
101.197
86.314
89.8464
86.8947
87.2249
86.8203
90.5711
107.218
107.506
109.175
108.189
110.981
138.17
125.297
107.575
106.821
120.854
131.674
107.947
105.748
109.176
90.4362
100.191
90.7005
112.823
103.436
103.048
101.41
102.38
105.388
134.433
133.294
134.705
141.576
109.729
106.411
111.429
150.116
135.536
116.837
76.5761
85.9556
82.9725
81.2015
70.3529
96.2034
100.258
97.0303
95.1309
94.9387
102.581
97.7409
107.866
82.9517
93.8706
90.4893
101.464
95.2425
103.051
109.961
131.309
127.256
105.061
102.728
101.982
110.98
128.441
117.457
124.884
119.428
129.403
100.549
100.057
101.086
98.9759
108.123
101.537
108.876
137.045
120.606
108.921
93.1678
99.8601
80.4874
88.7924
94.7204
91.2695
92.0847
74.0369
71.4245
66.183
69.2617
68.1122
66.917
67.806
91.2862
92.9319
89.0049
92.4802
90.4355
95.8181
70.9474
79.2426
70.5661
71.5949
68.2316
80.5262
73.9397
74.0336
68.1214
73.6311
74.5439
75.4426
74.1057
94.234
86.3183
73.0972
76.0662
80.5853
75.5752
69.9481
68.1745
67.8955
72.9016
70.561
68.3161
70.0515
72.9312
67.3286
69.3465
69.0681
68.1199
69.7116
96.9392
95.4639
109.544
106.29
98.4324
102.939
102.271
97.2721
106.727
116.171
106.127
103.236
117.857
118.401
94.0525
96.2717
94.2899
102.277
98.4002
97.0286
112.23
98.7852
108.718
105.8
103.72
103.924
93.907
94.9113
70.9732
81.3352
80.3769
82.6948
71.1438
70.9827
68.2831
63.565
62.9341
62.8409
63.8814
65.2528
72.0723
65.4809
67.568
62.5155
61.6036
66.9006
63.322
64.4796
63.321
64.0362
61.217
63.8032
86.5189
76.2047
99.315
97.6622
66.2054
79.2922
77.4557
106.898
128.675
108.237
125.694
142.169
106.111
100.032
92.088
93.9016
94.6452
84.6865
90.6307
75.6538
100.299
96.0907
98.1917
98.4194
98.628
93.0108
89.5104
88.3532
87.8823
92.1241
90.7974
94.2627
85.5447
87.352
84.8792
89.6677
90.4887
91.6631
82.5937
86.748
76.8928
91.5744
89.6082
90.2516
78.6608
77.1326
72.4415
83.3915
81.0263
82.9818
71.0978
76.9409
78.2773
88.5903
83.9062
85.8678
87.5459
87.1519
86.1876
86.171
83.4144
85.7165
84.1925
79.3608
80.66
84.0972
83.6289
84.4958
82.6432
83.5387
91.5236
90.5964
92.0968
85.2486
87.616
84.985
88.2003
88.1922
86.9335
86.7574
87.3751
87.0379
85.0073
87.5135
82.8033
83.0026
83.8605
82.3098
80.7381
92.1234
89.6035
84.0897
87.2253
89.0638
86.0663
84.0283
83.2998
91.3014
83.5039
84.1441
99.6316
104.92
109.338
104.499
90.4248
83.0309
80.4633
79.2981
90.0087
89.8659
103.459
88.3053
95.9547
92.2247
106.616
71.9589
79.3606
77.925
78.6667
66.2197
94.5217
108.615
94.7168
95.147
92.0933
96.9059
96.5489
97.2389
76.1681
94.4464
86.7508
103.774
96.4289
98.972
91.7811
98.1081
94.4074
94.492
98.6986
97.5575
102.635
110.319
114.845
118.022
103.01
110.485
97.044
92.7647
98.4945
97.419
102.416
101.104
103.322
102.477
101.761
102.139
67.6616
66.6996
66.2748
67.79
70.074
79.3657
69.1539
72.2511
72.9353
68.5326
73.8271
73.3064
75.3156
73.8578
68.3634
64.5359
68.0778
70.9083
92.8047
88.1856
90.5422
93.4818
95.286
78.3679
80.0858
78.799
83.8586
86.1027
94.7597
95.2709
96.0117
91.01
84.8349
88.7657
87.5804
92.0278
80.2941
100.947
94.5911
77.0333
79.0682
94.1652
110.29
105.568
96.4894
108.624
95.9876
88.7501
93.1495
98.3485
101.022
99.0151
99.8217
95.5753
89.0443
66.8588
76.0676
76.0198
66.85
65.2103
62.89
64.5665
63.9414
60.7483
68.1471
60.7393
65.2386
63.7287
62.9129
62.1178
62.7217
62.1392
93.3386
102.434
101.216
96.6239
97.2424
103.518
118.048
111.067
115.66
126.637
108.333
99.4933
102.703
127.863
134.368
114.648
134.204
103.621
