# vtk DataFile Version 4.2
vtk output
ASCII
DATASET POLYDATA
POINTS 642 double
-98.0926 192.334 75.3793
105.771 194.446 73.7549
-85.7036 -194.13 -3.44228
99.1178 -200.99 -6.09681
2.78503 -128.575 260.631
0.0378738 164.611 227.546
-0.51448 -130.537 -260.65
-2.93151 122.262 -259.565
176.417 -0.423724 -191.387
189.375 5.03321 178.479
-165.37 -2.93868 -189.75
-186.113 29.7317 179.784
-170.58 131.608 133.533
-139.331 86.0224 237.542
-78.3818 231.14 153.112
83.3501 230.864 153.987
0.559254 226.273 72.2217
81.9104 142.38 -181.549
-66.8287 143.964 -179.563
-129.333 76.3209 -255.631
-140.935 88.2995 -129.13
-160.783 -6.64553 27.5028
140.52 92.6755 236.618
181.053 135.316 133.561
-122.244 -72.6221 241.865
0.431882 -21.5481 290.584
-143.458 -94.2005 -129.593
-145.531 -101.867 99.0159
-1.60015 1.56608 -311.229
-134.225 -84.1098 -256.358
151.917 94.6946 -140.56
141.574 83.2708 -259.391
160.053 -104.726 98.0278
133.277 -72.1619 247.636
66.5102 -182.946 137.132
-59.2887 -179.553 136.764
3.62731 -248.758 -7.17572
-51.4805 -180.706 -151.079
65.5158 -188.686 -132.991
141.861 -83.5418 -259.142
139.362 -92.5035 -120.691
174.951 -3.74118 27.2354
-138.045 168.742 103.951
-140.24 185.044 140.699
-93.2272 219.451 119.685
-183.783 49.5481 204.211
-174.435 115.256 176.194
-187.842 70.772 166.475
-42.9279 206.849 204.165
-113.211 168.797 201.256
-81.8923 126.232 241.381
-37.9027 244.941 119.955
-53.0779 219.114 76.6911
45.2139 206.239 204.136
-0.10042 244.162 160.407
59.2618 217.918 73.9725
39.3154 244.281 119.508
101.571 220.337 117.501
-9.61386 161.951 -40.5129
-70.1898 115.506 -63.1821
70.0782 121.875 -71.92
15.3053 164.833 -39.0591
-49.0469 141.37 -219.952
-2.44895 148.69 -171.535
57.1188 140.643 -219.845
-115.541 117.442 -160.241
-140.71 147.415 -15.7049
-73.6774 107.838 -270.688
-99.8183 126.945 -218.799
-164.188 47.8437 -154.935
-143.527 85.6936 -199.506
-161.887 34.3935 -223.495
-149.465 117.957 66.0475
-169.389 -3.05566 -117.536
-169.728 60.3404 -75.9166
-174.689 74.4189 99.3238
-181.297 20.5667 122.581
149.928 187.505 140.902
148.539 172.156 101.737
86.8812 127.969 240.889
121.311 170.683 204.461
189.632 89.1766 149.12
180.972 125.72 177.298
180.751 44.7786 207.549
-83.8409 36.3706 268.907
-0.133506 69.1307 262.217
-167.832 -27.2576 207.791
-140.945 2.27601 251.09
2.79889 -80.1204 294.928
-73.2992 -48.6478 283.567
-63.449 -107.82 259.277
-162.812 -42.7907 78.026
-169.324 -36.6236 155.405
-163.798 -56.9393 -167.668
-153.515 -37.5613 -78.4164
-121.322 -154.932 45.679
-141.526 -118.284 5.53597
-116.933 -155.971 -39.1781
-141.622 -1.56223 -271.947
-163.378 -42.8768 -223.657
-4.05397 72.7286 -301.032
-79.5696 45.5743 -304.692
-77.8559 -115.604 -271.475
-81.7031 -45.4442 -301.582
-1.47652 -76.2485 -297.88
113.411 132.44 -221.65
85.2004 109.858 -269.05
145.193 140.717 -18.6944
128.351 121.985 -169.271
175.205 47.6041 -223.91
160.69 92.6384 -203.919
173.902 56.8856 -169.534
132.951 -161.849 39.8262
120.794 -152.536 120.579
88.3562 -198.349 62.8181
176.197 -32.0676 214.681
155.023 -82.6477 189.145
180.207 -40.6196 154.957
33.9306 -155.388 209.538
100.065 -128.338 209.346
66.963 -107.396 260.982
30.5694 -222.547 51.3361
48.5967 -235.241 -9.28652
-30.6164 -152.832 209.918
3.23278 -193.312 146.107
-37.207 -232.431 -7.57562
-23.0547 -219.963 51.2964
-79.2139 -193.427 64.3596
32.4795 -236.448 -68.4717
81.4933 -211.687 -65.8564
-69.0946 -204.211 -67.3676
-22.2548 -233.887 -68.5067
49.1112 -150.091 -225.805
1.91965 -211.011 -124.727
-57.0287 -151.985 -222.892
107.677 -144.172 -143.834
128.496 -166.415 -36.5979
79.9393 -112.495 -269.923
114.149 -135.467 -221.276
173.255 -53.0932 -180.111
160.876 -90.7907 -211.025
175.341 -48.7658 -223.636
153.666 -127.885 3.30848
180.529 0.535533 -121.145
168.64 -38.5072 -67.7716
178.494 -53.2583 73.6874
192.067 12.4529 112.663
80.619 -47.6577 285.515
145.619 -6.56948 257.886
88.4673 32.0733 270.965
-112.084 -146.183 121.647
-93.4226 -126.082 208.501
-145.777 -81.5557 184.727
-106.555 -137.117 -222.694
-115.456 -125.678 -154.613
-150.364 -93.1259 -202.695
146.859 0.00776126 -268.356
84.33 -49.0819 -299.726
83.8921 49.2192 -299.659
185.39 76.1411 96.0166
178.794 61.8669 -75.6091
158.627 124.082 63.1211
-117.561 182.635 86.3991
-118.6 195.942 114.181
-96.3645 207.244 96.0989
-160.137 156.603 137.378
-141.171 177.722 131.624
-157.26 150.718 124.525
-88.3864 227.791 133.653
-117.054 204.888 133.056
-112.712 211.834 145.939
-190.574 37.5117 186.756
-193.547 60.0011 178.92
-191.362 51.2009 175.159
-159.205 101.486 209.602
-181.672 79.7381 193.781
-163.546 66.8887 224.176
-178.722 106.009 146.566
-184.838 91.4025 165.435
-176.353 127.284 148.53
-22.2604 187.89 220.332
-61.9182 171.68 222.037
-42.2399 147.515 233.165
-95.7902 204.695 178.01
-79.733 191.078 203.195
-61.0589 221.437 181.227
-111.805 106.22 243.341
-98.6341 149.317 224.742
-128.586 127.958 222.098
-161.417 155.86 155.427
-147.338 143.453 191.234
-131.511 182.914 167.236
-72.3927 223.42 98.122
-77.332 207.463 76.2714
-57.2593 243.708 133.126
-64.5511 235.849 121.052
-27.9408 224.907 75.0048
-45.3814 234.56 100.134
-19.7253 238.463 99.2977
23.1977 187.742 220.377
-0.0304616 209.926 205.007
42.985 241.608 159.303
22.999 229.169 184.464
64.9092 220.827 181.461
-22.5823 229.203 184.473
-41.6786 242.132 159.025
85.296 206.912 72.87
80.2579 223.117 96.8555
105.262 208.344 95.0391
19.553 238.594 98.4272
49.2259 233.595 99.0132
29.8373 224.553 72.6683
95.3042 228.718 132.413
71.0146 235.183 119.39
60.7305 242.743 132.697
-22.1816 251.917 135.27
21.9335 251.543 135.406
-0.528864 246.71 120.979
-63.001 196.65 51.6365
-86.8732 181.853 50.0823
-11.3752 206.541 41.2955
-33.9626 205.081 47.9568
-69.0601 140.409 -165.093
-21.0469 154.931 -57.8479
-43.595 149.118 -147.687
88.4891 184.617 43.9448
73.5573 193.34 45.3876
55.0473 150.022 -144.201
42.6498 147.379 -52.871
84.2979 142.598 -158.884
38.8048 205.06 45.1806
14.9528 206.771 39.7085
-27.9658 135.911 -239.614
-1.01263 140.937 -220.615
28.1294 136.222 -238.084
-44.6284 148.376 -173.751
-29.0964 143.348 -199.604
-61.864 143.101 -199.369
74.7211 141.176 -204.378
29.3936 142.076 -201.884
51.2067 145.225 -175.438
4.29222 164.838 -36.7482
21.1312 153.775 -127.691
-20.7642 151.384 -130.351
-140.68 132.236 -33.8926
-116.24 160.152 49.2464
-92.2673 132.922 -177.779
-107.265 120.463 -150.911
-133.835 124.951 -92.6771
-132.958 118.739 -110.844
-128.373 110.878 -135.465
-41.8604 116.031 -266.849
-62.4727 132.342 -244.557
-116.888 106.621 -239.123
-90.7933 122.129 -244.721
-102.223 94.0971 -266.939
-75.343 138.324 -220.643
-83.194 137.785 -199.8
-166.004 27.2132 -174.351
-161.611 43.9177 -197.133
-164.234 15.3872 -209.771
-143.274 86.7519 -166.256
-154.054 66.6019 -182.92
-158.295 63.4055 -140.042
-150.607 56.1204 -239.639
-153.89 63.5226 -212.919
-141.851 83.4002 -225.755
-108.228 124.957 -192.105
-125.44 108.227 -209.933
-127.923 107.573 -180.291
-131.886 151.439 58.2519
-115.368 107.51 -40.93
-134.833 149.29 22.023
-145.618 145.311 86.0054
-162.829 127.712 107.957
-169.324 -2.18477 -145.966
-170.578 28.8305 -130.486
-152.105 45.1522 -36.1998
-165.55 33.4093 -110.783
-173.769 -23.9594 -81.1645
-166.963 49.4601 -112.518
-168.428 56.1199 -98.6075
-186.322 52.3793 160.801
-184.26 31.9941 163.545
-174.365 106.152 121.868
-181.627 76.6965 140.976
-176.499 11.5132 86.8928
-180.583 45.5055 114.477
-172.253 39.134 75.2975
-171.387 78.9284 -0.735189
-170.781 84.4281 31.5732
-165.064 94.9962 79.9412
128.104 198.251 111.787
127.687 185.135 86.2708
120.044 212.724 146.955
125.789 207.237 130.042
167.061 155.106 120.2
151.082 180.857 127.017
170.481 160.158 136.78
44.7311 147.65 232.96
67.0301 171.314 222.478
134.151 134.289 223.764
105.447 151.591 226.582
115.114 111.859 243.739
86.38 190.568 204.729
102.87 204.469 180.217
188.88 42.4978 166.502
188.069 68.3176 177.36
188.09 20.813 190.749
186.561 133.624 148.812
189.284 108.356 160.988
188.262 115.661 140.76
163.551 69.5942 223.574
181.469 91.4556 193.085
163.223 111.681 209.551
140.047 184.059 171.191
155.472 149.222 194.355
170.78 159.396 159.15
-49.5575 101.462 251.439
-0.0403422 120.718 244.7
-115.732 67.7732 257.747
-88.6155 83.3223 256.584
-0.306879 19.0471 280.429
-47.8253 48.7591 267.046
-42.9572 5.17119 282.726
-179.23 -0.262636 189.566
-176.585 11.8239 206.331
-133.307 -36.7021 249.606
-156.879 -14.6983 231.982
-147.712 -49.567 225.348
-160.437 29.2256 229.261
-144.081 46.8949 247.074
2.71742 -108.272 279.908
-27.2009 -95.3523 279.418
-24.0712 -120.17 261.486
-34.5518 -36.6731 289.358
-28.7119 -66.2056 289.78
1.93662 -55.2436 299.365
-94.435 -92.2786 253.523
-69.4995 -80.0105 275.359
-100.34 -62.2815 266.705
-114.27 19.6922 265.648
-108.297 -24.3055 271.569
-79.1216 -9.47442 283.864
-178.853 -7.60106 137.115
-178.403 -5.11552 170.411
-164.26 -15.4532 59.2119
-176.6 -11.2613 99.7048
-158.274 -66.5734 131.678
-170.255 -38.4822 114.651
-156.038 -75.4777 88.5191
-165.96 -36.9633 -177.358
-170.242 -29.7511 -136.356
-147.269 -77.5355 -109.595
-164.867 -45.543 -135.301
-156.41 -73.8302 -157.425
-167.623 -19.8386 -107.266
-164.06 -23.4866 -32.949
-106.482 -172.871 22.2941
-120.915 -156.097 3.70205
-102.399 -177.038 -19.7625
-143.698 -113.628 53.5487
-133.44 -135.886 27.6615
-134.514 -131.503 68.541
-130.388 -122.79 -80.0482
-132.507 -136.383 -17.6421
-139.139 -109.419 -52.9262
-159.563 -51.5323 9.85526
-148.453 -89.1986 -26.311
-150.026 -87.3189 36.9759
-164.324 -2.96491 -228.14
-164.087 -23.2312 -210.199
-137.394 38.7402 -266.622
-155.642 17.1627 -247.092
-155.364 -63.8653 -239.797
-157.217 -22.2008 -247.079
-139.128 -42.4943 -265.794
-3.76793 100.576 -282.25
-44.2505 90.7799 -290.023
-47.0396 25.644 -311.399
-45.5308 60.4971 -306.276
-2.79169 41.7759 -310.882
-78.0006 78.7283 -291.612
-106.827 63.1993 -284.212
-44.1576 -124.068 -267.245
-46.5421 -97.3468 -287.971
-0.815831 -107.876 -281.17
-110.231 -67.8936 -283.744
-81.7457 -84.8227 -290.228
-106.769 -101.675 -267.936
-1.57205 -39.6695 -309.11
-46.5201 -61.1143 -302.365
-47.2095 -22.4526 -311.269
-113.058 20.9058 -291.861
[...]
POINT_DATA 642
SCALARS Mean_Curvature double 1
LOOKUP_TABLE default
0.00663902
0.00622268
0.00683078
0.00907808
0.0257312
-0.00157326
0.00744518
0.00723617
-0.00206986
0.0105864
-0.000263554
-0.00931244
0.0115073
0.0112036
0.019609
0.0175637
0.00761292
0.0102312
0.0234312
0.0137918
-0.010548
-0.0015044
0.00921732
0.00873531
0.0118757
0.00476428
0.0102721
0.00513149
0.00137031
0.014701
-0.010565
0.0157881
0.00764334
0.0139825
0.00788365
0.00788295
0.0430365
0.00794952
0.017727
0.0144646
-0.00295883
-0.00311977
0.00758802
0.0398723
0.00722186
0.0211052
0.0141978
0.00080315
0.0128851
0.00871631
0.00915795
0.0134323
0.00899066
0.0107765
0.0102054
0.00680435
0.0105124
0.00946897
0.00686027
-0.0176411
-0.0185171
0.0177881
0.0126924
0.00358334
0.0121284
0.0200598
-0.09863
0.0149767
0.0157051
0.0110899
0.009521
0.0203903
-0.0118001
0.00655066
0.0603904
0.00689281
0.00542927
0.0276093
0.00931793
0.00600465
0.0107316
0.00156754
0.0179907
0.0132989
0.00331689
0.000726986
0.0201571
0.0136521
0.0244028
0.0143067
0.0125543
-0.000152632
0.00317804
0.0131194
-0.0131457
0.00867426
0.00704304
0.00503311
0.0164782
0.017124
0.0100523
0.0158841
0.0157432
0.00959226
0.00594744
0.0249855
0.0127306
0.0837705
0.00975583
0.0242084
0.0171895
0.00847898
0.00812732
0.0073224
0.00966339
0.0212055
0.0066769
0.00254488
0.00426765
0.00720592
0.00936901
0.00256459
0.0168485
0.00367703
0.0138163
0.0178768
-3.10582e-05
0.0111139
0.0182643
0.0143644
0.0101206
0.018332
0.0103416
0.00855595
0.00677249
0.00240595
0.00813244
0.00897391
0.0259507
0.0106359
0.0231464
0.0246436
0.0103835
0.0110025
0.0030696
0.00690621
0.0130205
0.0123805
0.0131991
0.00201791
0.00695399
0.00819996
0.0100353
0.0267505
0.00576038
0.0146118
0.00673602
0.0109509
0.00996048
0.00481273
-0.0481584
-0.0120571
0.00754087
0.00696608
0.0115551
0.031835
-0.0036662
0.000740925
0.0281399
0.00983875
0.0292457
0.0512742
0.0565281
0.01919
0.0076714
0.015225
0.0131741
-0.00156755
0.0301801
0.0359072
0.0140596
0.00941407
2.70116e-06
0.009699
0.010973
0.0108279
0.0122588
0.0104715
0.0109595
0.0221847
0.00852138
0.0111058
0.012762
0.00900376
0.0335701
0.0059791
0.00869425
0.0106152
0.00846146
0.0136919
0.00852047
0.0160007
0.0123363
0.00912798
0.0125212
0.0171872
0.00940485
0.01176
0.0108394
0.00939169
0.00690901
0.00837058
0.0281708
0.00851533
0.0274342
0.034935
0.0335296
0.00133114
0.00271846
0.00130139
0.00652011
0.00388091
0.00226533
0.00226296
0.0247381
0.00230608
0.00376732
0.0139624
-0.00165036
0.0119858
0.0024491
0.00865098
0.0143842
0.00907144
0.014928
0.0110944
-0.00354681
0.0088297
0.00105582
-0.00366003
-0.000455839
0.000410218
0.0031205
-0.00109613
-0.0278947
-0.0169196
0.011692
0.00145451
-0.0758791
-0.149056
0.00384082
0.00809372
0.0202695
0.0184541
0.0186716
0.013178
0.0223009
0.0146424
0.00496357
0.00887622
0.00313709
0.00400525
0.00523181
0.00841992
0.019005
0.0120687
0.0185727
0.0155544
0.0140782
0.0119502
0.0157263
-0.0280855
-0.0185298
0.0128636
0.00572686
0.00211664
0.0189626
-0.0160844
-0.0100392
0.0343295
0.00941788
0.00924656
0.000221768
-0.00292022
0.00810879
0.000506836
0.0112059
0.00599117
-0.0019491
0.0435284
0.0436474
-0.0133718
0.00834522
0.00751995
0.0218646
0.0178079
0.00585318
0.00663459
0.0248882
-0.000619011
0.0080179
0.0134675
0.0123977
0.0156185
0.0107244
0.00983206
-0.00052854
0.0120944
0.0133128
0.0361141
0.0196334
0.0176348
0.00846694
0.0152879
0.0107644
0.0110686
0.0121952
0.0209632
0.00203019
0.00149231
0.0163389
0.00622093
0.00421858
-0.000966034
0.00488452
0.0191656
0.0127825
0.0111912
0.0139506
0.0109042
0.00331462
0.0160067
0.023096
0.0092084
0.0089239
0.00437118
0.0090843
0.026257
0.014218
0.0142311
0.0130621
0.00971403
0.0132553
0.0161985
0.00707457
0.00322062
0.000899331
0.0119799
0.00273332
0.00808305
0.00505208
0.00252498
0.0219549
-0.00198309
0.00494343
0.00529237
-0.0201543
-0.00992318
0.00489436
0.00764802
0.00658185
0.00847796
0.00578907
0.00862953
0.00301586
0.0101581
0.00321394
0.0027395
0.00379885
-0.000993759
0.0211639
-0.00172906
0.0117644
0.0127945
0.0217181
0.0154367
0.00726483
0.00788976
0.0111079
0.0063618
0.0139242
0.00967682
0.0156326
0.0134673
0.00826182
0.0102015
0.00763348
0.013305
0.0160862
0.0140253
0.00713026
0.00646285
0.008369
0.010277
0.0152985
0.0140534
0.0161328
0.00506607
0.0128553
0.0266219
0.0160863
0.0221695
0.018449
-0.0066099
-0.0210291
0.00341403
0.0151206
0.0960842
0.00092419
0.00741178
0.00112058
0.0149736
0.00467839
0.0218834
0.024794
0.0223271
0.00522119
0.0115569
0.00468267
0.0115378
0.00998703
0.0226651
0.00798509
0.00979785
0.00581595
0.00639684
0.00614503
0.00571913
0.00910217
0.00791623
0.00796296
0.0220326
0.00659005
0.00695062
0.0122572
0.00966146
0.0179224
0.00659047
0.00697789
0.0038054
0.0109046
0.00699092
0.0108334
0.0060113
0.00691286
0.00538098
0.0131984
0.0125322
0.0122714
0.00428569
0.00762273
0.00536592
0.0017998
0.0120549
0.00692428
0.00835875
0.0234331
0.00798468
0.0165933
0.00656157
0.0126229
0.00745139
0.00581466
0.00484042
0.00895847
0.00691835
0.0107233
0.00125439
0.0031033
0.0162245
0.00957177
0.0239197
0.0075012
0.0107214
0.00846498
0.00543698
0.00574909
0.0146908
0.00706326
0.00699344
0.0130329
0.00455632
0.0105213
0.0162486
0.0134971
0.00440956
0.00390116
0.0139929
0.0125424
0.00549642
0.00348421
0.0163199
0.0156359
0.000504428
0.0141425
0.0107646
-0.00433484
-0.0212938
0.0361705
-0.0161332
0.0267236
0.0131752
0.0183063
0.0162336
0.00722373
0.00853962
0.00717634
0.00751023
0.0062826
0.00659573
-0.00823141
0.0103107
0.0163846
0.0182641
0.0143844
0.0145378
0.0143317
0.0263978
0.00758394
0.0207506
0.00111831
0.00184716
0.00960923
0.00359206
0.0227285
0.035028
0.0296423
0.00933948
0.0312444
0.004898
0.00928958
0.00726894
0.0123663
0.0109791
0.00370412
0.00185957
0.0222145
0.0197954
0.0510081
-0.0234585
0.0102086
-0.00730181
0.00934098
0.00307523
0.0083509
0.00864787
0.00126429
-0.00224578
0.00967914
0.0018189
0.00159424
-0.00268096
0.0112202
0.013872
0.0121852
0.0140257
0.000824563
0.021912
0.00547726
0.00977511
0.013963
0.0171768
0.00186181
0.00309031
-0.00135405
0.0049959
0.0143055
0.0197561
0.01337
0.0173175
0.0121821
0.00676897
0.00651366
0.00696474
0.006908
0.011952
0.012179
0.0136626
0.00657308
0.00475986
0.00899754
0.00384193
0.00439129
0.0138603
0.0122781
0.00535479
0.0106645
0.0049792
0.0183326
0.0101633
0.0354928
0.0168633
0.0190997
0.00572595
0.00444301
0.00477047
0.0100668
-0.0201168
0.0135301
0.0228487
0.0185681
0.0131656
0.00711129
0.00564891
0.00791434
0.022103
0.0172495
0.0143649
0.0116751
0.0117955
0.0146381
0.0117089
0.00940624
0.00417202
0.0121523
0.0194842
0.00595771
0.01946
0.0162129
0.00770757
0.0101356
0.0095636
0.00592464
0.00966586
0.0019996
0.000458224
0.0107131
0.0158324
0.00237001
0.0150852
0.0356553
-0.0217944
0.00132907
-0.0126584
-0.0206914
0.00640587
0.0149749
0.052503
-0.0295123
-0.0142865
0.0359944
0.0100998
SCALARS CoVolArea double 1
LOOKUP_TABLE default
687.803
748.309
824.42
725.777
619.016
1361.91
1053.69
1140.56
1014.13
536.199
911.472
357.438
525.209
1246.14
1022.41
1127.19
1007.63
696.128
502.685
1138.05
2005.55
2927.73
1431.2
525.337
1113.39
1644.96
1304.19
1340.13
1986.72
1197.84
2123.1
1085.2
1343.56
1051.28
1381.35
1390.22
410.674
1634.14
1480.87
1105.72
2633.34
3108.51
990.672
664.97
663.567
920.182
1209.22
411.561
1219.69
1488.03
1481.21
601.147
803.048
1316.88
1197.53
954.756
683.903
660.134
1523.37
6363.75
4130.91
2216.26
795.131
1747.62
874.458
604.519
741.596
1078.21
760.055
851.615
770.238
752.702
2787.93
819.596
1032.81
1505.94
1084.86
812.09
901.201
1513.61
1401.26
906.847
1074.55
1245.96
1658.87
2701.07
873.965
1297.26
910.016
1336.29
1148.53
1733.92
1073.5
676.271
2450.12
953.032
1368.54
1486.7
1309.85
760.001
1545.29
1374.17
1108.98
1512.21
1758.85
688.858
1174.34
1318.21
726.584
788.86
609.123
762.943
1054.21
1468.39
1188.09
758.404
1187.35
1120.37
1261.36
1271.87
1269.96
1353.99
833.646
1246.49
1255.91
791.052
1333.92
1134.33
871.594
878.195
1077.82
817.056
1630.59
1936.02
1260.45
2017.33
1030.11
1240.77
787.167
548.974
400.558
755.688
1187.41
977.444
2293.3
1525.72
1142.95
1331.15
1247.12
1721.7
1429.69
1151.63
999.967
705.944
1706.8
578.048
1650.64
1570.08
1551.22
1351.82
910.576
2782.42
937.859
807.817
721.96
474.709
600.825
706.263
568.416
538.479
919.736
469.216
465.465
253.388
1379.47
997.225
1122.55
572.257
625.274
631.828
1269.3
1384.32
1741.49
1360.16
1298.41
1189.16
1208.54
1327.27
1416.48
1109.18
1630.06
1428.66
720.897
731.397
669.983
574.346
836.737
683.146
846.155
1329.47
1239.99
1168.92
1274.13
1284.51
1225.1
1090.3
743.68
779.321
719.701
908.925
805.303
932.479
651.398
635.815
762.74
850.724
896.123
782.628
2939.95
2994.75
1443.89
1676.02
2443.69
3751.71
1088.11
2636.03
2216.14
1899.28
3414.84
1822.69
2104.68
1415.67
1102.83
1067.62
1245.17
915.699
1103.12
589.521
707.216
1254.77
1364.76
1795.16
2211.46
1864.25
3776.83
1392.09
603.312
2562.22
1460.07
654.78
762.746
1175.52
916.286
984.741
901.044
1075.31
641.517
559.721
1030.79
788.387
755.179
998.286
832.367
915.102
934.226
707.677
864.397
712.996
851.056
854.853
886.9
4638.52
1895.55
1097.8
970.415
1184.7
851.489
4591.35
1644.52
2533.65
511.653
2241.87
751.971
793.483
952.777
988.247
1207.22
1204.67
2931.1
2604
2116.68
1258.26
755.069
905.175
1046.53
608.796
705.313
632.93
571.151
1840.69
1452.85
1306.28
1264.26
1210.45
1342.67
1411.99
1068.42
1008.52
826.693
596.732
731.891
468.265
1407.89
1159.42
1338.71
1440.24
1454.06
1096.66
2221.04
2388.1
1345.22
1569.98
2228.52
2167.06
1787.62
641.274
991.068
1211.94
1122.46
996.32
1182.05
1277.05
860.702
1144.31
1011.82
1409.41
1148.87
1049.13
1017
1216.44
1193.57
1539.07
1406.92
1601.3
1202.66
844.958
1600.17
1107.55
1293.79
1269.79
1507.15
1023.9
767.833
2036.63
1155.27
906.236
833.841
1512.35
1024.31
1042.42
1074.87
1249.29
987.212
1062.94
1729.07
1251.85
1606.23
2679.95
2611.29
2007.76
761.131
781.155
1302.01
1005.99
970.861
1025.15
1368.28
1488.88
1270.95
1680.73
1326.79
1645.83
1152.61
1309.7
1252.05
1453.05
1503.07
1395.1
1268.82
1107.31
1840.84
1598.18
1792.59
1523.64
1634.7
1564.42
1034.21
1465.57
527.426
595.339
1012.15
865.314
996.13
1972.75
4289.26
709.924
1392.81
1074.36
2393.21
653.138
837.757
598.858
1087.29
859.609
579.22
912.825
925.482
570.259
813.055
660.174
745.195
785.077
974.086
1116.13
1063.66
1482.93
1207.48
1200.49
1168.3
1158.48
1406.93
582.29
758.482
706.861
1014.18
835.04
879.361
1251.73
1098.63
1437.9
945.882
1248.46
984.165
1446.49
1288.81
1357.09
1124.08
1143.62
1103.2
1619.81
1371.88
1613.23
1145.34
904.067
1442.47
1300.72
556.417
963.937
706.419
968.315
1108.15
1396.39
1236.57
1370.38
1190
1380.97
935.76
1088.02
1077.3
695.668
901.135
507.133
1153.1
1241.7
1391.2
1548.01
1534.24
1318.64
891.689
864.522
739.819
829.521
1152.17
823.787
1016.83
983.958
963.888
1052.41
885.676
1639.88
806.687
693.757
1056.52
2047.32
1111.39
1773.01
2985.87
1919.56
892.818
2541.3
1317.93
914.904
1001.02
1001.41
1007.07
916.973
1604.11
1519.28
1867.36
1817.31
2417
1273.5
1055.22
1013.88
1027.75
1110.96
1043.25
1123.09
943.69
470.397
798.718
1304.11
374.421
1514.02
908.021
452.947
779.814
1099.17
674.092
1194.69
915.742
1894.05
875.913
967.091
1316.39
1308.72
751.679
1632.37
823.802
2723.59
1315.55
2835.34
1127.48
1049.85
1304.89
1230.17
1297.86
1239.96
1727.18
2545.35
2425.72
1796.76
1116.57
1187.1
1305.19
1139.91
1489.02
950.924
1579.72
1290.53
975.311
1065.62
2327.41
1961.08
2342.09
1665.12
1524.72
1236.13
1502.21
1531.79
1012.2
1426.99
1141.03
1106
1388.02
1138.07
1039.66
988.699
1164.54
1409.9
760.56
1296.37
920.534
810.178
1012.18
1497.7
1207.45
1420.75
951.688
1164.94
638.964
924.51
987.255
1340.27
1427.68
1871.88
1806.53
2378.68
665.611
835.178
614.305
548.019
813.561
1172.1
872.761
710.67
1026.7
1358.8
1272.62
1260.9
1346.84
1546.24
1884.77
1670.99
1291.86
1263.57
1590.11
1236.96
1234.57
1562.57
1839.28
1812.27
1965.33
1816.99
1265.66
2525.39
1071.21
828.234
829.512
980.415
2780.37
608.765
1684.72
4038.92
903.649
1011.15
978.142
1465.79
4903.33
1889.83
3152.74
1466.68
SCALARS SignedDistance double 1
LOOKUP_TABLE default
82.7008
81.5909
74.4435
70.8293
59.3859
60.8158
60.743
65.2612
74.4698
73.4819
77.403
79.1488
79.2177
53.9422
63.4095
61.3548
81.823
82.5756
88.4985
60.5745
94.7563
87.0651
54.3306
76.3647
61.052
57.5324
94.3051
79.3988
50.7893
57.6677
87.5193
54.4365
77.7852
58.1461
66.5523
68.2306
66.5867
90.5646
76.05
54.7058
86.3358
87.1291
80.246
75.575
73.4081
67.3711
71.63
80.5859
52.879
54.9963
57.9881
73.499
82.5235
53.1525
58.6478
81.3169
72.9342
72.5158
113.529
111.016
113.855
114.408
81.5547
94.7436
80.838
89.2103
135.49
57.265
76.1138
82.2075
77.5447
73.7618
87.3947
93.9883
131.679
85.5725
79.9832
71.2254
78.1341
58.2017
52.9903
73.7477
64.5946
64.6199
60.0778
59.4328
72.0879
55.9368
51.3511
53.1961
57.1909
86.6012
77.1543
80.4838
103.422
77.9259
81.4595
77.5703
58.0076
75.3043
51.5171
48.0152
53.6235
49.7227
50.849
75.3132
58.9229
130.982
82.2243
73.1335
76.3801
78.4305
73.0818
70.077
68.1319
68.459
69.0818
74.9467
64.495
65.1963
57.0332
69.4635
67.5747
66.1997
66.876
70.4871
71.5383
71.1752
65.146
68.9628
72.38
68.1931
76.1921
65.6545
78.04
91.3303
73.4178
55.341
80.2583
77.1179
77.178
73.325
79.5277
90.7086
102.855
79.4584
80.9609
53.6835
53.3468
60.1693
72.7054
67.2405
75.1419
77.0127
90.7042
77.1004
54.006
52.5746
52.1098
80.7088
124.972
85.6029
81.9824
76.1635
78.9604
77.6008
75.3498
77.9269
71.3563
73.1622
70.9317
79.4084
81.6738
80.9941
58.1743
66.4615
56.2073
78.1407
80.5493
78.657
56.9719
57.2891
59.3728
55.0623
53.5386
53.1945
54.7003
55.0264
54.0685
71.8568
57.7931
61.1097
77.9769
82.3414
71.61
72.4315
82.7353
77.3152
77.3812
56.9613
53.082
58.7713
52.8051
53.713
52.8411
58.8588
81.8447
76.9602
77.5896
76.1195
76.4865
81.3711
70.0291
72.1302
70.9845
72.0446
71.5045
72.5096
86.2367
86.3323
88.0175
87.3161
90.9822
120.439
105.809
86.3124
85.783
102.015
112.769
89.2248
84.9238
88.3571
75.7779
81.135
76.0917
94.128
83.5811
83.3232
81.4173
82.3231
86.4765
112.807
114.595
114.842
138.403
89.6948
85.6131
91.063
134.353
119.084
100.161
62.2703
72.047
68.7353
66.8805
56.2085
78.3407
81.2708
78.0315
76.1791
76.2391
82.7209
78.2183
88.5183
69.2064
75.3534
73.6457
82.0483
76.5389
83.2978
90.8368
114.869
111.184
84.6279
82.4774
83.0084
91.4334
112.445
97.7477
118.238
102.575
114.45
80.6987
80.5509
80.8174
79.4499
87.1887
81.4406
87.996
123.57
110.861
88.6608
74.5555
80.1986
66.6028
71.4515
75.7616
72.9621
74.0054
59.2426
57.6402
52.035
55.7834
54.7985
53.0025
53.5757
73.0471
75.5789
72.1265
75.8155
73.5913
77.0014
56.6125
65.1329
56.2974
58.058
53.7756
67.1027
59.1281
59.0775
54.453
58.9532
59.9989
61.2585
59.4534
76.7562
71.9728
58.3496
61.1347
65.4514
60.9873
56.0817
54.4583
54.1252
58.4348
56.7017
55.2619
56.8115
58.0517
53.1579
54.9199
55.2507
54.1451
55.8383
77.3804
76.4288
88.1429
85.5139
79.3506
82.9147
81.9384
78.0678
87.0931
97.0287
85.4061
82.7536
98.258
100.723
74.8418
76.6842
75.0839
82.5034
78.7786
77.6058
93.7265
78.986
88.9321
85.5995
83.1416
83.2899
76.2799
76.0988
57.1548
67.2089
67.3628
68.8046
57.7012
56.997
54.4551
50.9539
50.1184
50.4171
50.2879
51.6495
58.1812
52.0917
53.8461
49.4037
48.7652
53.2847
50.4169
51.9265
50.8138
51.2292
49.2709
51.0058
72.7063
61.6841
79.9455
79.9325
53.0237
65.9203
64.5151
87.0158
113.589
91.1491
107.6
123.348
86.6127
79.724
73.8696
75.4162
75.8924
69.5831
73.8288
63.2732
80.4309
76.6309
78.4167
78.8198
78.8112
75.684
71.1464
70.2243
70.1113
74.2831
72.4561
75.6414
67.9598
69.4747
67.449
72.2859
72.7787
73.2867
66.9248
69.8956
62.1433
72.8768
71.7164
71.9569
63.393
61.8426
57.9356
66.6
64.7329
66.4111
56.4529
61.6194
62.8154
70.7799
66.8614
68.7111
70.185
69.5882
69.1686
68.8613
66.6039
68.2433
67.1651
63.9754
64.4594
66.8759
67.1236
67.4862
66.2345
66.5823
73.364
72.5086
73.3807
67.9136
69.8412
67.8425
70.4063
70.8439
69.5388
69.3791
69.7198
69.7982
67.7507
69.8183
66.4565
66.1941
66.6316
65.4442
63.8081
73.6236
71.655
66.597
69.8088
70.7533
68.7748
67.1385
69.4524
75.0029
69.7529
67.2315
84.1127
89.0378
93.7305
90.8031
74.1065
67.1508
63.3801
62.7958
71.902
71.5263
87.4894
70.408
77.0093
73.6101
87.6442
58.1011
65.5684
65.6835
65.8311
53.0666
79.6087
91.6851
75.7352
76.328
73.8525
77.0114
76.7885
77.5657
64.3122
76.695
73.0497
85.5316
78.7718
79.3416
73.1215
78.7247
75.175
75.4877
79.4991
79.1977
83.577
89.9569
94.2502
100.172
83.4445
90.8788
78.4739
74.3633
78.8956
78.9625
82.4546
81.3313
83.2217
82.0914
82.5238
82.1448
53.8635
52.9555
52.4543
54.855
56.256
66.0885
54.8534
57.8299
58.9631
54.4007
58.9952
58.7691
61.1625
59.1045
54.7118
51.0212
54.1029
57.2305
74.1629
70.2308
72.0835
74.5908
76.489
63.0614
64.2231
63.2376
67.0203
68.6741
75.9322
76.3197
76.9543
74.0479
68.4872
70.7233
70.47
73.4672
66.8885
83.2552
79.7465
63.703
66.4663
75.1981
91.0464
87.6875
77.7804
91.045
77.2851
73.0312
74.9346
78.593
80.912
79.4326
79.9752
77.2037
72.7396
53.8957
62.808
62.7378
53.875
51.9127
50.2602
52.0243
50.8246
47.6834
54.1852
47.6981
52.2073
50.977
50.4876
48.9519
50.1188
48.9762
74.8772
81.87
81.5354
77.6397
77.6467
85.0447
104.555
92.5968
96.5065
110.497
89.9093
79.8895
83.1441
109.775
123.262
100.186
117.234
83.5906
