# vtk DataFile Version 4.2
vtk output
ASCII
DATASET POLYDATA
POINTS 642 double
-160.624 275.459 31.6412
164.963 277.617 30.4983
-153.634 -273.8 -2.01856
161.283 -279.108 -3.1111
1.22443 -184.555 318.546
0.0298612 197.487 304.023
-0.341589 -185.381 -318.644
-1.55479 181.55 -317.798
278.929 -0.383653 -203.935
287.459 1.09078 196.733
-271.725 -1.89147 -203.391
-285.827 8.75959 191.866
-266.959 173.682 122.027
-180.949 111.731 297.585
-108.432 295.163 185.621
110.686 295.419 186.363
-0.226558 327.344 30.354
106.625 250.145 -192.728
-100.39 249.909 -189.572
-178.907 108.924 -307.433
-238.79 148.378 -129.222
-282.462 -2.21292 13.9868
181.888 114.588 297.92
273.357 176.391 123.463
-173.64 -106.272 297.845
0.310901 -8.83209 369.742
-243.611 -149.161 -130.271
-242.35 -151.807 112.737
-0.852459 0.653508 -382.743
-181.136 -112.146 -308.523
247.168 152.148 -135.612
184.739 112.482 -310.848
250.673 -155.487 112.361
179.371 -106.895 302.165
99.3968 -263.539 174.697
-96.2452 -260.838 174.099
1.11399 -340.786 -2.34931
-97.7602 -259.538 -180.001
99.0152 -265.791 -175.883
184.738 -112.51 -310.849
240.837 -148.613 -127.192
291.546 -0.293615 12.9768
-220.344 234.27 80.1662
-203.826 246.787 155.588
-145.479 301.478 106.943
-247.656 58.7999 253.84
-239.634 150.437 215.354
-291.716 88.8781 163.591
-57.2995 257.381 258.761
-151.144 214.534 252.616
-97.1544 159.077 312.854
-56.24 337.801 107.722
-85.6353 314.759 31.3174
58.2888 257.116 258.796
-0.0209365 311.452 196.627
88.2817 314.563 30.3841
56.5807 337.354 107.858
149.003 303.007 106.432
-37.9256 279.833 -74.9284
-122.829 236.056 -83.9817
128.813 246.309 -87.0563
41.041 280.616 -73.7228
-58.8345 231.472 -258.537
-0.903715 258.063 -194.979
62.6668 231.428 -257.577
-183.058 209.417 -165.004
-209.511 201.058 -40.5324
-95.085 154.005 -328.205
-146.429 198.853 -255.916
-266.352 79.8626 -168.069
-228.89 139.322 -220.365
-243.374 53.6696 -259.737
-252.016 167.3 34.113
-286.876 -1.08828 -109.034
-275.951 83.1519 -70.1971
-287.137 91.5789 81.849
-291.765 12.2267 117.283
208.225 248.166 158.18
226.432 237.587 78.8873
99.4899 160.304 313.894
155.084 216.17 255.037
289.395 97.6042 162.248
244.081 155.361 217.104
247.146 57.1508 254.719
-98.7608 55.4429 347.124
-0.0734456 94.4963 342.412
-240.896 -51.1606 252.421
-188.705 0.56335 313.468
1.22588 -102.071 364.422
-95.3564 -60.7369 354.65
-90.016 -152.313 319.883
-276.971 -73.0853 70.2736
-270.162 -73.6177 165.902
-269.595 -85.1761 -172.01
-268.937 -73.9796 -74.8059
-205.719 -221.27 54.8766
-244.671 -163.769 2.7701
-201.993 -221.375 -52.147
-192.399 -0.529452 -327.155
-244.99 -56.2868 -260.21
-1.86307 99.94 -368.007
-99.6757 60.4661 -368.715
-97.0105 -157.446 -329.261
-100.444 -60.2077 -367.304
-0.813928 -100.718 -366.15
152.313 202.818 -258.528
100.1 155.871 -328.52
217.398 200.256 -42.0478
190.61 212.553 -170.838
250.837 59.4045 -262.479
239.869 145.284 -223.119
276.887 86.3331 -174.268
212.226 -225.655 53.034
185.685 -220.557 149.369
136.124 -280.304 85.4579
246.624 -53.9361 257.459
230.04 -135.264 218.358
276.375 -75.4531 168.045
52.1946 -230.589 256.58
144.29 -194.737 252.696
91.6713 -152.509 321.26
50.217 -313.036 81.4996
84.2807 -323.089 -3.78193
-51.0574 -229.613 256.365
1.32071 -278.839 185.3
-79.4967 -320.66 -3.15931
-47.1165 -311.37 81.1186
-131.486 -276.468 85.3942
52.1365 -322.238 -89.6207
134.871 -288.122 -87.0177
-128.557 -283.039 -87.1848
-48.3686 -320.693 -89.3356
59.8938 -231.363 -263.833
0.758145 -286.575 -176.874
-62.2498 -233.04 -263.257
184.696 -213.931 -159.831
209.907 -228.052 -51.8969
98.2597 -156.194 -328.589
152.185 -202.244 -259.13
275.861 -85.3144 -178.005
241.689 -145.703 -223.438
251.064 -59.566 -262.297
253.331 -169.589 1.23439
294.443 0.0715242 -111.128
276.863 -73.0589 -69.6413
286.092 -79.0574 69.3951
299.773 5.55709 110.504
98.6454 -60.3366 356.964
191.635 -2.94294 318.407
101.162 53.7394 348.873
-180.757 -216.091 149.33
-140.778 -193.578 251.177
-225.051 -134.321 213.989
-149.833 -203.415 -258.492
-185.611 -210.899 -167.382
-234.668 -144.679 -221.488
194.019 0.00467333 -325.041
101.655 -62.0185 -367.103
101.486 62.0701 -367.081
293.581 94.1006 79.3862
284.595 84.0814 -70.3939
258.441 171.163 31.4124
-191.435 258.168 54.4066
-186.729 270.373 95.1197
-154.964 290.619 68.826
-241.35 212.621 138.346
-217.002 244.049 118.363
-245.748 205.941 102.99
-130.898 304.727 143.848
-177.3 278.634 132.362
-158.34 274.366 172.043
-271.902 32.3738 223.47
-274.544 74.8872 208.231
-294.468 49.2077 179.039
-213.653 132.789 259.926
-245.848 105.168 237.663
-217.126 85.4986 278.997
-280.707 133.174 142.411
-269.922 120.917 188.728
-259.168 164.627 165.137
-28.8759 229.43 285.798
-77.6156 211.766 287.875
-49.1582 180.171 309.214
-130.737 258.838 221.974
-105.961 239.028 257.413
-83.7123 279.368 225.343
-140.229 136.384 309.07
-125.841 188.892 286.1
-168.145 164.523 278.429
-223.931 201.135 187.234
-199.083 184.818 237.302
-179.774 233.697 207.107
-115.428 313.223 69.7305
-125.231 297.681 31.148
-84.0954 323.797 145.566
-101.364 323.583 108.553
-44.5298 324.779 30.9686
-71.2057 329.353 70.6182
-28.2815 336.835 70.4767
29.3153 229.34 285.823
-0.00380296 260.961 261.335
56.5537 307.879 194.34
29.6919 288.745 230.356
85.4064 279.347 225.636
-29.5178 288.767 230.355
-55.9955 308.059 194.283
129.163 298.495 29.6063
118.719 313.781 69.2149
159.309 292.355 68.195
27.8644 336.514 70.4699
72.6252 328.944 70.4245
44.8999 324.454 30.3178
133.286 305.108 144.388
103.504 323.707 108.388
85.1329 323.487 145.734
-29.7622 332.956 150.707
29.7388 332.893 150.786
-0.230173 341.787 108.747
-107.679 290.019 -2.7834
-142.171 270.911 -3.20027
-24.1438 310.773 -9.41031
-63.5484 304.966 -4.68693
-115.447 246.975 -159.698
-77.3974 258.849 -80.1147
-72.6616 262.468 -155.044
143.299 273.614 -8.38957
113.24 289.177 -7.30591
78.2139 261.777 -155.163
89.4835 255.759 -78.9914
122.669 248.127 -159.031
65.9695 304.651 -6.05224
24.6551 311.074 -9.94452
-31.388 208.339 -290.374
-0.466613 232.516 -259.193
31.6893 208.125 -288.989
-55.5007 257.629 -193.795
-31.3383 249.848 -226.638
-81.931 245.616 -224.227
87.6627 247.199 -225.554
32.5168 249.381 -226.545
59.2337 255.52 -195.685
-0.0589243 285.475 -74.0857
27.204 268.521 -148.26
-28.3097 269.815 -148.859
-168.027 220.958 -60.5349
-184.495 245.045 9.51208
-144.055 233.175 -179.986
-158.642 226.243 -146.618
-217.085 185.87 -94.4459
-197.839 200.442 -120.046
-214.561 182.39 -145.012
-49.6392 170.002 -326.517
-77.9561 196.913 -296.357
-164.568 156.955 -285.317
-123.476 178.875 -294.476
-138.52 133.321 -321.802
-103.65 218.633 -259.708
-124.328 230.924 -222.867
-271.555 40.6943 -188.55
-260.83 69.5857 -216.099
-263.605 25.1344 -231.291
-236.242 145.092 -175.572
-250.685 110.515 -197.141
-257.067 114.466 -146.766
-214.251 82.1935 -286.16
-239.371 100.012 -242.271
-209.103 126.82 -264.914
-168.883 209.104 -210.341
-192.361 172.327 -240.847
-207.71 179.468 -193.895
-212.844 226.64 29.3717
-225.47 151.845 -49.5525
-223.218 197.342 -1.46935
-239.804 201.882 56.5178
-261.638 173.159 80.8558
-277.318 -1.68428 -157.727
-280.86 41.9497 -137.12
-269.936 42.9865 -34.5176
-283.449 41.2069 -97.4209
-281.01 -5.98163 -68.4754
-276.251 79.6139 -116.188
-266.788 104.07 -98.0706
-297.221 51.7472 146.795
-293.411 13.9337 159.494
-280.427 133.268 105.153
-289.944 91.3532 127.28
-292.568 6.3855 69.1516
-292.575 51.0971 102.171
-288.91 46.6509 55.0224
-265.929 109.421 -13.8879
-277.027 90.6902 19.1546
-274.1 131.25 55.4855
191.582 273.119 94.0182
196.822 260.902 53.9475
161.849 275.27 173.921
180.915 280.089 133.036
252.151 209.066 102.593
222.23 246.494 118.702
246.76 214.86 140.746
50.5909 180.111 309.102
79.9536 211.673 288.571
171.134 167.792 280.401
128.895 190.341 288.138
141.605 139.155 310.121
108.916 239.188 258.578
134.144 259.484 223.41
288.902 47.6235 181.927
273.76 78.5358 208.683
271.719 27.2327 225.22
265.339 168.839 167.678
272.423 127.334 189.276
286.559 139.224 142.941
217.357 86.7636 278.994
247.39 109.958 237.804
216.295 137.378 261.037
184.439 235.64 209.702
203.573 188.23 239.922
229.641 204.328 190.271
-52.9732 129.443 329.751
-0.0159879 148.777 323.382
-142.415 87.1794 326.922
-101.444 108.607 332.869
-0.160299 40.442 359.889
-52.5406 73.1011 347.155
-50.0756 22.4881 362.209
-266.573 -21.5077 222.964
-246.839 4.07497 255.683
-183.726 -54.2229 309.902
-217.117 -26.4685 286.847
-209.724 -78.9846 277.419
-219.377 31.4645 286.658
-188.362 57.5916 309.237
1.19791 -146.671 344.941
-43.8757 -129.142 346
-41.8709 -170.391 321.694
-46.4652 -35.2426 366.599
-44.7782 -82.1376 361.956
0.950163 -57.3245 374.494
-133.653 -131.041 312.249
-94.2289 -108.137 341.556
-137.326 -85.4075 330.92
-145.604 28.3458 335.871
-144.125 -30.792 339.176
-98.3064 -3.61798 357.925
-284.42 -30.0003 142.104
-280.087 -32.5729 181.333
-283.701 -33.1566 45.5331
-289.707 -32.5483 91.7303
-256.63 -112.099 142.637
-276.297 -73.6539 117.83
-262.527 -114.61 91.6976
-272.791 -45.628 -189.148
-280.148 -44.4102 -140.174
-258.756 -117.009 -105.063
-273.444 -80.689 -128.384
-259.109 -119.377 -153.946
-285.018 -35.6776 -96.3977
-281.592 -33.8468 -35.3444
-181.473 -247.462 26.8289
-205.944 -222.826 1.44535
-179.529 -249.74 -26.7058
-245.483 -160.62 57.7524
-227.469 -192.752 29.8094
-224.866 -188.821 81.996
-223.469 -182.639 -91.7865
-226.778 -193.013 -25.3248
-243.195 -156.89 -60.456
-273.168 -77.5508 6.23976
-259.268 -123.345 -31.6946
-261.114 -122.152 35.3251
-248.668 -1.07599 -265.36
-264.38 -28.1631 -231.153
-188.305 55.3578 -321.138
-220.209 27.2709 -295.992
-216.35 -84.9461 -286.928
-221.253 -28.9526 -296.456
-189.157 -56.5195 -321.101
-1.80369 143.866 -346.101
-51.5157 128.866 -353.765
-53.3496 31.7433 -381.687
-52.653 81.1383 -373.188
-1.36497 52.5735 -380.553
-99.1644 109.206 -352.784
-142.157 86.9537 -342.881
-50.8521 -173.353 -327.143
-52.4683 -131.041 -352.83
-0.549319 -146.422 -345.622
-143.402 -88.4697 -342.787
-100.529 -111.365 -352.344
-140.627 -136.673 -322.994
-0.794197 -51.5003 -379.351
-53.0061 -81.0866 -371.187
-53.4092 -30.4029 -381.181
[...]
POINT_DATA 642
SCALARS Mean_Curvature double 1
LOOKUP_TABLE default
0.00785653
0.00787866
0.00647599
0.00738473
0.0115294
0.00528601
0.00501283
0.00552014
0.00435269
0.0141246
0.00652664
0.0103602
0.0129545
0.00663479
0.00579576
0.00580262
0.00540565
0.00762464
0.0087898
0.00695953
0.00281032
0.000701819
0.00614602
0.0118526
0.00679006
0.00553556
0.00419267
0.00446975
0.00275734
0.00726641
0.00214652
0.00765287
0.00526115
0.00717189
0.0049518
0.00477714
0.0129573
-0.000837114
0.00310641
0.0076208
-0.00212461
0.00194936
0.00507634
0.008102
0.00868792
0.0076453
0.00549966
0.0146445
0.00710067
0.00598003
0.00637202
0.0119584
0.00770092
0.00631495
0.0048956
0.00684319
0.0112402
0.00932311
0.00362942
-0.00706905
0.00600371
0.00305234
0.00824643
0.00123755
0.00593029
0.00812739
0.00278338
0.00743135
0.00751446
0.00308245
0.00941129
0.00694633
0.0025209
0.00992783
0.0120499
0.00453968
0.000327726
0.00747585
0.00609425
0.0070216
0.00651288
0.00853851
0.00675201
0.00467921
0.00533881
0.00165243
0.00698563
0.00692529
0.009985
0.00717249
0.00675399
0.00282391
0.00544427
0.00684584
-0.00429424
0.00758227
0.00502301
0.00399017
0.00868962
0.00647539
0.00582981
0.00764744
0.00784459
0.0063189
0.00425316
0.00725392
0.00851403
0.000191754
0.00738494
0.00803666
0.0101342
0.00679106
0.00551318
0.00444877
0.00550561
0.00755669
0.00688496
0.00468266
0.00482381
0.0065798
0.0058676
0.00355108
0.00882691
0.00531758
0.00714812
0.00945529
0.00322309
0.00576842
0.00805421
0.00773125
0.00686648
0.00842444
0.00929707
0.00596512
0.00885978
-0.000745524
0.00528688
0.00650139
0.00726462
0.00736389
0.0131665
0.00778951
0.00617329
0.0102679
-0.00147824
0.00546452
0.00706528
0.00669032
0.00748198
0.00554011
0.00411462
0.00703576
0.00763752
0.00728021
0.00224813
0.0109447
0.00481829
0.00767541
0.00744322
0.00424544
0.0113872
0.00281923
0.00670838
0.00607792
0.00670638
0.0124401
0.0109129
0.00667867
0.0101348
0.0120959
0.00565825
0.00852417
0.00593589
0.0163165
0.00618394
0.00590493
0.00720217
0.0106741
0.00650306
0.00600139
0.00744869
0.00581097
0.00372552
0.00629444
0.00633363
0.00690858
0.00631217
0.00582944
0.00622438
0.00493525
0.00610815
0.00562651
0.00710074
0.00765542
0.0093308
0.00978437
0.00750275
0.00687904
0.00703578
0.00718469
0.00562173
0.00614901
0.00748058
0.00640051
0.00758154
0.00660373
0.00731889
0.00702103
0.00677857
0.00651904
0.00609826
0.00678709
0.00913497
0.00949144
0.00859277
0.00864252
0.00867106
0.00949815
0.00427127
0.00404442
0.0042993
0.00351766
0.00486408
-0.006602
0.00786603
0.00523579
0.00530695
0.00683809
-0.0113637
0.00405584
0.00269261
0.00471431
0.00496436
0.00501092
0.00341089
0.00518589
0.00829348
0.0108722
0.0133314
0.00790269
0.00204655
0.00323626
0.00221824
0.00455627
-0.00347088
0.0030129
0.00980592
0.00522076
0.0154459
0.00470396
0.00732135
0.00689396
0.00741805
0.00659865
0.00702298
0.00726383
0.00768911
0.00948479
0.00484489
0.00986532
0.00969462
0.00535245
0.00721921
0.0052996
0.00664649
0.00934516
0.00704269
0.00866727
0.00894127
0.00797866
0.00667804
-0.0127698
0.00800617
0.00614708
0.00588638
-0.00101723
0.00656158
-0.00952839
0.00698125
6.46902e-05
0.009601
0.00635929
0.0110302
0.00934765
0.00638319
0.00292901
0.00775814
0.00273209
0.00349881
0.0022011
0.00525836
0.00614797
0.00720423
0.00696556
0.00579189
0.0106147
0.00712635
0.0101071
0.0112066
0.00297759
0.00551912
0.0070593
0.00655201
0.00678073
0.00608482
0.00624387
0.00819376
0.00586797
0.00549335
0.0078222
0.0073743
0.0134719
0.00530214
0.00585439
0.00696335
0.0061322
0.0069207
0.00603999
0.00305719
0.00165384
0.00712337
0.00692992
0.00394145
0.0014271
0.00589587
0.00745869
0.00475798
0.0067391
0.00704757
0.00631678
0.00592088
0.00744102
0.0100354
0.0058941
0.00585175
0.00417439
0.0055529
0.0130112
0.0073242
0.00702333
0.00707247
0.00508512
0.00732286
0.00823107
0.00125406
0.00823522
0.002104
0.0089589
0.00224365
0.00493891
0.0038227
0.00448621
0.00563567
0.00236721
0.00674751
0.00649609
0.0119376
0.00571564
0.00372298
0.00526672
0.00494004
0.00614342
0.00396304
0.00443322
0.00117381
0.00539526
0.00326213
0.00141379
0.00352163
0.00264019
0.00977863
0.00919709
0.00679465
0.00551382
0.00647882
0.00628253
0.00575077
0.00535223
0.00745319
0.0063924
0.00765441
0.00568143
0.00770844
0.00739541
0.0066073
0.00682031
0.00452172
0.00682569
0.00766658
0.00761545
0.00491205
0.0060445
0.00648691
0.00658442
0.00800841
0.00765337
0.0078622
0.00396321
0.0111117
0.00836205
0.00770036
0.00725616
0.00695057
0.00280305
-0.0102435
0.00702699
0.00442731
0.0183491
0.00396801
0.00922147
0.00988679
0.011936
0.00597289
0.00701281
0.00873563
0.00741627
0.00499482
0.0111842
0.00818978
0.0110519
0.0106889
0.00841106
0.0051331
0.00571751
0.00437565
0.0042936
0.00500737
0.00414509
0.00563086
0.00545699
0.00477806
0.00902462
0.00979621
0.00915448
0.00762553
0.00840921
0.00747634
0.00267865
0.00605745
0.00395028
0.00805604
0.00559037
0.00677958
0.00458416
0.00612724
0.0044722
0.00703755
0.00708794
0.00711864
0.00445163
0.00690487
0.00464313
0.004086
0.00754602
0.00514563
0.00448475
0.0104316
0.005908
0.00827997
0.0067724
0.00754548
0.00474968
0.00475645
0.00402539
0.00544937
0.00491529
0.00768819
0.00375266
0.00389425
0.00840006
0.0060655
0.0107403
0.00543721
0.00461743
0.00554082
0.00459346
0.00471815
0.00645299
0.00575619
0.0052866
0.0063942
0.00488186
0.00600596
0.00799198
0.00716345
0.0045198
0.00474837
0.00675646
0.00759733
0.00556047
0.00469394
0.00701353
0.00656973
0.00582478
0.00571767
0.00574221
-0.0031772
0.000688144
0.0109611
-0.0048461
0.00558172
0.00754306
0.00810608
0.00781702
0.00662745
0.00567668
-1.20241e-05
0.00528587
0.00430814
0.00461122
-0.00201319
0.00691325
0.00673789
0.00693714
0.00719925
0.00781587
0.00731281
0.00988045
0.00661993
0.013878
0.0096559
0.00919939
0.0147552
0.00428019
0.00730689
0.00830318
0.0066716
0.0103484
0.00854813
0.0118171
0.00608416
0.00499378
0.00652788
0.00610772
0.00333635
-0.000774597
0.00520285
0.00345449
0.0118883
-0.00256684
0.0056701
-0.00188396
0.00524313
0.00351143
0.00736552
0.00357188
0.00482892
0.0033127
0.00454065
0.00518088
0.000501373
0.00237281
0.00670322
0.00736488
0.0058956
0.00666132
0.00324602
0.00732024
0.00467644
0.0061606
0.00761119
0.00816345
0.00251404
0.00417698
0.000908507
0.00677036
0.00524776
0.00870362
0.00661531
0.00986758
0.00655605
0.00441238
0.00508493
0.00471498
0.00404498
0.0066798
0.00706079
0.00744488
0.00699097
0.00439709
0.00933764
0.00434271
0.00858524
0.00674654
0.00689353
0.00508523
0.00724753
0.00521627
0.00812176
0.00997099
0.00803893
0.0072918
0.00672104
0.00530126
0.00327794
0.00168339
0.0041109
-0.00275539
0.010809
0.00693477
0.00921095
0.00955875
0.00784255
0.0126448
0.0109658
0.00876445
0.00439428
0.00833263
0.00535483
0.00537637
0.00833307
0.00646866
0.00650878
0.00455799
0.00755154
0.00835523
0.00445187
0.00830821
0.00837527
0.00501136
0.00662022
0.00592091
0.00497776
0.00596116
3.29322e-05
0.00307875
0.00717313
0.00733781
0.00697734
0.00349632
0.00541706
0.00592424
0.00806927
-0.00759318
0.00650613
0.00630174
0.00682999
0.011685
-0.0143822
0.00545312
0.00226736
0.00504341
SCALARS CoVolArea double 1
LOOKUP_TABLE default
1407.46
1454.59
1582.91
1562.07
1658.27
2040.52
1992.55
2027
1636.22
1460.98
1493.56
1406.62
1787.8
2485.8
2489.06
2544.27
2039.01
1673.22
1626.18
2501.05
2639.76
2966.52
2619.38
1818.43
2381.11
2630.66
2206.58
2300.44
2962.78
2549.28
2593.97
2489.96
2362.33
2388.99
2418.72
2409.95
1773.73
2781.4
2702.69
2492.5
2824.67
2994.48
1860.99
2394.17
1858.29
2254.64
2629.72
1742.61
2377.92
2672.69
2491.68
2066.27
1770.85
2441.82
2664.34
1891.37
2120.36
1909.76
3183.48
3903.13
3209.7
3582.1
2138.38
2361.69
2241.7
1794.94
2423.16
2343.99
2329.33
1956.8
2087.2
2176.48
3031.3
1838.38
2349.21
2262.32
1941.2
2449.75
1880.93
2482.03
2653.94
2008.69
2550.33
2478.86
2756.09
3103.23
2196.59
2594.06
2245.72
2669.89
2348.79
2453.12
1921.01
1741.53
3027.04
1954.65
2364.48
2406.35
2664.02
2225.71
2646.46
2747.04
2364.86
2812.06
2748.05
2389.68
2394.14
2964.06
1788.34
2283.74
2157.55
1827.36
2053.75
2515.63
2187.73
2131.01
2278.3
2025.75
2259.34
2417.02
2423.68
2454.13
1927.58
2225.77
2433.99
1867.45
2433.26
2142.53
2179.04
1964.59
2115.97
2133.72
2356.42
2847.65
2219.89
2891.66
2069.31
2427.68
2290.84
1581.53
1955.94
2299.15
2220.73
1972.63
3198.86
2403.39
2108.32
2687.84
2581.32
2790.7
2461.15
2318.88
2183.22
2297.73
2330
2060.49
2868.71
2838.04
2836.52
2232.01
2526.95
3012.65
1815.5
1850.8
1786.48
2099.8
1778.69
1680.07
2065.62
1940.45
2533.68
2035.63
2123.74
1582.16
2572.06
2326.52
2268.88
1820.32
2242.32
2341.08
2331.12
2472.59
2540.98
2627.72
2428.24
2335.12
2354.49
2459.51
2628.91
2894.76
2960.41
2975.91
1855.99
1664.76
2341.36
1880.72
1798.38
1820.17
2026.79
2370.65
2412.05
2625.4
2423.38
2397.95
2392.42
2578.06
1723.3
1910.14
1804.93
2069.81
1903.88
1878.77
2133.68
1942.93
2399.4
2711.94
2737.16
2378.56
2835.15
2728.07
2491.34
2628.89
2504
3797.09
2583.96
2601.77
2602.7
2957.2
3733.91
2350.97
2805.02
2548.23
2353.09
2379.94
2478.75
1914.99
2042.52
1786.57
1785.15
2105.52
2084.16
3252.55
3228.94
2975.49
3754.74
2529.66
1675.87
2591.16
2262.91
2265.42
1885.27
2321.88
2280.26
2490.03
2292.72
2336.01
2099.69
1980.25
1933.51
1909.04
1851.06
1963.87
1863.01
1881.18
2305.57
2046.81
2401.89
2239.81
2517.94
2212.65
2006.36
4187.77
2451.22
1934.36
1881.52
2141.84
2003.27
3698.75
2140.03
2429.21
1727.98
2775.51
1554.61
1584.83
1915.53
1742.27
2067
1926.22
2976.72
3341.29
3012.58
2448.62
1895.42
1804.99
2581.01
2041.11
1766.95
1892.8
2163.37
2587.48
2507.49
2592.55
2425.29
2368.25
2468.07
2660.53
2031.12
2325.64
2157.17
2274.89
2177.03
1744.86
2467.62
2420.65
2585.11
2964.42
2902.84
2851.08
2854.28
2869.89
2617.38
2534.43
2808.1
2819.04
2769.94
2013.44
2303.77
2513.85
2319.51
2207.88
2333.13
2575.27
2147.08
2386.67
2207.69
2648.35
2405.39
2278.99
2239.48
2428.62
2531.31
2980
2903.49
2994.7
2038.81
1763.29
2483.09
2080.84
2079.76
2159.7
2383.03
1885.81
1928.53
2504.25
1969.85
1714.55
1939.31
2772.58
1967.06
1996.07
1963.76
2245.25
1967.24
2056.44
2627.42
2249.33
2578.61
3377.35
3177.78
2820.64
2220.98
1864.94
2648.17
2375.01
2359.74
2391.08
2690.13
2527.05
2478.07
2870.49
2544.34
2684.01
2435.7
2668.32
2389.15
2580.02
2561.96
2725.11
2502.35
2362.45
2762.39
2668.86
2919.33
3044.7
3108.64
3064.24
2353.47
2513.81
1943.92
2101.64
2315.67
2285.5
2547.18
2856.44
4152.32
1833.83
2668.78
2260.19
2581.5
1665.32
2024.07
1881.06
1944.39
2491.53
2116.65
2316.17
1803.46
1769.01
1854.39
2236.56
2177.85
2621.83
1980.26
2140.34
2043.69
2496.7
2192.97
2144.26
2185.44
2193.9
2484.21
1920.93
1917.87
1717.3
2332.07
2052.37
2173.64
2179.69
2034.2
2407.22
2075.84
2339.8
2184.12
2488.52
2289.65
2290.9
2323.53
2297.38
2401.7
2731.98
2637.51
2770.93
2139.9
1915.06
2498.03
2267.68
1765.61
2034.14
2015.21
2085.62
2177.2
2489.01
2257.93
2271.38
2245.86
2480.26
1884.71
2086.27
2012.32
1994.71
1982.75
1708.61
2162.47
2232.82
2469.23
2784.31
2776.2
2646.61
1980.59
1886.35
2097.25
1981.11
2293.93
1970.5
2322.61
1910.15
1983.48
2417.72
2002.4
2418.25
1941.48
2060.09
2234.54
2579.87
2249.83
2741.17
2997.57
2474.44
2265.59
2885.45
2768.52
2423.02
2522.4
2505.08
2048.76
1914.27
2926.59
2496.1
2567.96
2597.93
2794.12
2419.9
2304.5
2538.88
2329.74
2347.44
2163.18
2474.7
1876.18
1813.7
2018.24
1969.39
1534.55
1968.56
2332.05
2097.74
2500.7
2633.86
2464.35
2363.42
1968.67
2672.44
1978.69
1999.99
2318.27
2222.97
1927.66
2879.49
2061.34
2514.4
2199.79
3102.61
2061.58
1920.87
2336.18
2186.23
2044.05
2085.35
2594.7
3185.08
3318.92
2702.3
2380.95
2563.4
2504.51
2411.41
2687.52
2314.33
2762.92
2438.18
2271.38
2471.19
2902.71
2855.86
2913.17
2586.56
2744.09
2822.15
2954.4
2950.12
2048.83
2459.66
2164.17
2129.51
2408.06
2276.35
2347.17
2196.31
2191.51
2425.89
1945.01
2241.24
1902.83
2066.5
2331.85
2656.59
2539.59
2568.3
2249.7
2332.87
2029.98
2304.25
2533.28
2328.2
2293.83
2710.12
2534.02
2674.73
1884.53
2467.64
2102.16
1726.79
1825.85
2339.95
2103.5
2496.92
2480.19
2687.23
2547.19
2542.21
2686.44
2648.39
2973.02
2715.86
2504.01
2650.09
2670.54
2640.86
2490.98
2681.42
2959.8
3203.7
3273.62
3205.71
2172.62
2824.22
2032.22
1861.53
1869.45
2092.04
2974.22
1879.1
2279.23
3536.26
2082.29
1945.9
1938.78
2383.72
4126.49
3046.09
3575.06
2566.94
SCALARS SignedDistance double 1
LOOKUP_TABLE default
198.356
194.972
182.226
174.155
142.109
143.523
142.517
148.554
178.923
173.226
185.787
179.767
186.157
136.765
141.105
139.151
191.982
194.857
198.4
141.679
207.494
212.54
135.583
178.67
147.411
138.777
205.624
191.358
124.264
136.315
199.214
131.951
183.182
141.488
165.858
169.51
160.371
178.791
170.191
131.944
195.954
204.599
189.792
161.544
173.473
147.815
151.949
184.532
133.797
138.123
139.979
169.162
194.779
133.861
136.27
192.671
168.471
170.011
227.13
224.567
225.011
224.006
174.502
200.615
174.426
203.073
226.866
137.194
166.579
191.126
181.405
161.649
206.866
210.13
229.16
200.918
193.09
154.452
184.213
140.906
134.072
175.268
145.132
147.634
141.414
146.317
159.232
138.806
127.748
131.873
141.456
204.057
187.721
191.664
208.852
188.055
196.87
189.508
134.07
160.005
127.285
120.923
131.807
121.849
126.825
160.153
136.299
223.26
194.769
152.423
172.19
186.924
179.846
172.404
171.141
152.437
168.312
179.302
157.442
158.706
139.859
168.962
166.05
159.755
164.325
171.481
171.173
176.199
159.305
168.478
176.429
163.531
161.835
161.869
163.321
187.274
180.822
133.62
158.914
187.466
175.175
152.586
189.312
203.536
205.041
193.037
189.411
130.137
133.908
141.358
178.486
162.8
174.85
159.15
196.642
178.139
130.936
122.179
122.079
193.196
221.933
201.52
194.381
181.102
186.27
175.41
178.881
187.105
158.363
168.871
148.895
163.038
161.26
182.068
142.217
148.926
139.904
184.124
165.863
166.122
137.478
138.154
143.812
138.05
135.742
134.775
136.581
137.015
137.598
153.15
142.854
144.325
183.27
196.433
153.911
169.869
193.786
181.182
180.718
137.458
134.018
136.439
132.843
133.959
132.86
136.443
193.98
180.852
182.646
179.507
179.783
192.038
154.407
167.872
152.824
149.303
149.231
168.522
204.789
206.383
204.607
204.145
206.348
224.253
213.233
205.19
203.722
208.184
219.568
200.362
201.661
203.485
160.472
175.694
160.334
200.137
191.998
188.473
189.258
191.545
198.129
226.94
216.907
220.958
224.004
206.09
199.571
208.74
228.132
217.503
207.804
143.696
152.894
151.464
149.606
137.09
167.604
185.2
186.491
181.599
177.138
194.39
187.263
199.862
149.973
171.078
159.905
187.351
173.268
191.638
204.164
220.759
213.762
199.689
196.215
191.507
199.509
219.294
213.832
220.261
210.245
217.46
193.061
191.308
193.709
191.261
205.472
196.739
206.738
222.856
215.121
206.007
176.448
189.635
144.722
162.716
180.308
171.867
167.372
143.709
137.803
133.525
134.809
134.965
134.139
135.302
175.926
160.931
159.74
159.552
159.038
176.91
140.01
147.209
138.568
139.089
136.623
146.305
144.863
145.509
135.656
141.354
143.986
145.277
142.886
168.488
154.766
142.438
146.536
152.783
144.783
136.963
133.268
134.514
141.867
135.93
131.745
131.953
143.308
134.618
137.361
136.434
134.74
135.116
188.556
184.395
209.229
201.951
189.238
195.546
197.729
186.882
197.208
209.716
201.84
197.665
213.212
214.164
185.167
189.039
185.437
195.793
192.498
188.996
200.103
193.06
201.486
203.679
201.856
201.552
162.786
177.934
136.226
146.636
145.333
146.677
134.713
136.458
131.958
123.136
123.67
122.822
126.918
128.647
138.221
129.185
132.592
125.337
123.981
131.73
124.362
124.85
122.622
125.278
119.592
125.002
154.287
144.024
181.752
165.454
130.552
144.707
142.718
201.179
217.33
198.721
206.461
218.015
200.371
193.882
170.759
173.778
181.012
148.429
159.458
138.946
192.744
181.517
188.582
182.407
185.925
163.648
176.741
174.866
173.339
177.446
177.547
183.299
168.999
172.379
168.385
161.45
169.994
176.958
154.901
161.327
145.695
179.855
173.711
176.329
150.583
149.345
140.968
163.618
157.668
162.255
139.632
148.838
150.247
172.002
162.909
167.383
170.85
170.356
168.213
169.489
162.262
167.809
164.829
151.873
156.702
166.156
162.683
165.355
161.135
164.697
177.613
176.607
180.928
166.851
171.527
165.325
173.585
173.102
170.91
168.655
169.456
168.542
167.635
171.96
160.56
163.219
166.125
162.876
161.005
180.196
174.693
166.2
169.444
174.246
168.07
162.893
152.551
162.897
152.611
163.614
170.322
176.618
178.691
172.735
168.522
158.957
159.843
158.021
175.474
176.827
178.421
173.102
186.146
180.202
192.706
137.915
146.591
142.563
143.783
130.422
160.536
178.369
182.216
176.476
170.946
188.651
184.273
190.716
138.977
160.304
148.607
180.35
163.473
185.233
180.527
190.237
184.661
183.976
188.944
184.947
190.587
205.002
207.76
213.55
194.906
200.75
183.815
179.366
189.654
185.34
197.891
193.751
197.732
196.088
197.42
195.517
133.514
132.583
132.651
130.725
135.767
147.455
136.498
140.481
140.266
134.974
144.72
142.175
145.094
141.949
135.702
128.589
133.963
133.756
181.186
173.649
178.076
183.505
184.226
150.932
154.375
151.788
161.229
168.092
177.085
184.861
183.238
167.495
160.583
173.059
167.716
179.135
145.763
175.873
159.302
142.818
144.78
183.844
200.637
192.905
183.689
189.487
179.722
153.776
166.442
185.616
192.256
182.836
188.359
167.052
154.151
128.742
139.886
139.884
128.741
128.747
122.946
124.841
125.086
122.405
132.948
122.408
125.611
125.434
122.244
123.634
122.479
123.638
180.247
198.73
191.924
184.264
186.949
189.986
207.886
199.589
207.079
213.758
199.006
189.797
194.249
209.905
217.851
207.078
216.431
198.363
