# vtk DataFile Version 4.2
vtk output
ASCII
DATASET POLYDATA
POINTS 642 double
-0.567072 0.931504 0.0170325
0.573596 0.934638 0.0160801
-0.54723 -0.906494 -0.00645711
0.554282 -0.91187 -0.00568939
0.00183403 -0.577344 0.966077
0.00123721 0.59711 0.96287
0.000100347 -0.593275 -0.994599
0.00180786 0.595256 -0.9946
0.934091 0.00227984 -0.618085
0.927594 0.00737953 0.599117
-0.922978 7.24054e-06 -0.612914
-0.922347 0.010246 0.595335
-0.880365 0.555589 0.357054
-0.560023 0.348824 0.917366
-0.34402 0.915091 0.570177
0.347219 0.91628 0.571457
0.00059365 1.10186 0.0196375
0.345358 0.886328 -0.579991
-0.339543 0.885266 -0.577027
-0.568259 0.349379 -0.948376
-0.867017 0.540511 -0.357105
-1.04952 0.00915332 0.00213598
0.563597 0.350061 0.920778
0.887545 0.560391 0.358132
-0.550323 -0.33702 0.91663
0.00186394 -0.00374537 1.13996
-0.855379 -0.529647 -0.366107
-0.850337 -0.523541 0.347046
0.000134551 0.000440764 -1.18
-0.569785 -0.350949 -0.949151
0.878217 0.546339 -0.363433
0.576521 0.354172 -0.952763
0.859082 -0.5289 0.349154
0.556747 -0.33911 0.922141
0.331308 -0.868617 0.557035
-0.326689 -0.865703 0.555583
0.00160614 -1.07934 -0.0059813
-0.337002 -0.879961 -0.575651
0.338988 -0.88169 -0.574038
0.575211 -0.351577 -0.952127
0.864934 -0.533633 -0.36689
1.05986 0.00898658 0.000270263
-0.745321 0.782372 0.187603
-0.650044 0.773336 0.485189
-0.481128 0.963834 0.293296
-0.785887 0.176077 0.779007
-0.763255 0.47737 0.666571
-0.94073 0.281277 0.500003
-0.172233 0.781545 0.805636
-0.47484 0.664898 0.780804
-0.280876 0.496673 0.978739
-0.179666 1.06656 0.308635
-0.30783 1.055 0.019165
0.174738 0.78207 0.806621
0.000800797 0.964435 0.600679
0.31107 1.05612 0.0188337
0.181432 1.067 0.308878
0.485889 0.966187 0.293796
-0.175362 1.03351 -0.288697
-0.472402 0.935505 -0.276859
0.47842 0.937265 -0.27935
0.177902 1.03427 -0.289434
-0.173281 0.767475 -0.824831
0.00158329 0.931478 -0.606425
0.178327 0.768761 -0.826294
-0.638684 0.749142 -0.490687
-0.736173 0.768217 -0.166834
-0.285763 0.497807 -1.01259
-0.476066 0.655261 -0.80164
-0.931589 0.271789 -0.510453
-0.758355 0.46823 -0.683814
-0.79102 0.171715 -0.803508
-0.907157 0.573337 0.0120535
-1.01731 0.00360614 -0.333955
-1.00565 0.285283 -0.18694
-1.01268 0.292495 0.194836
-1.01858 0.0127803 0.328076
0.655901 0.776414 0.487193
0.753188 0.786857 0.187367
0.283984 0.49753 0.980632
0.479114 0.667066 0.783599
0.944474 0.284012 0.501289
0.768369 0.481026 0.669484
0.789612 0.175726 0.78285
-0.295597 0.182128 1.08046
0.00139552 0.319231 1.08732
-0.777114 -0.162265 0.777696
-0.586416 0.00234248 0.964757
0.00203631 -0.318787 1.09488
-0.292409 -0.18276 1.08318
-0.273488 -0.482424 0.980743
-0.996734 -0.268325 0.186741
-0.920639 -0.256559 0.496744
-0.927432 -0.268819 -0.514914
-0.996755 -0.272973 -0.195726
-0.717834 -0.750199 0.16794
-0.886671 -0.552937 -0.00536188
-0.720549 -0.753447 -0.182007
-0.601306 -0.000284862 -0.999289
-0.791758 -0.173159 -0.804342
0.000715515 0.326656 -1.12885
-0.304392 0.187145 -1.12127
-0.287166 -0.498339 -1.01299
-0.304709 -0.187157 -1.12063
0.000350118 -0.326344 -1.12806
0.484485 0.660432 -0.806356
0.290845 0.50097 -1.01504
0.745856 0.772615 -0.170539
0.648636 0.753429 -0.496086
0.802602 0.176003 -0.808826
0.771297 0.475111 -0.690037
0.943341 0.277327 -0.516655
0.725918 -0.75617 0.168835
0.627429 -0.735028 0.475208
0.464018 -0.924914 0.272221
0.783644 -0.165422 0.783586
0.747701 -0.454166 0.666961
0.928243 -0.260383 0.500545
0.168548 -0.74529 0.800506
0.464065 -0.635816 0.778969
0.277895 -0.483515 0.983629
0.173193 -1.0217 0.283945
0.300448 -1.03339 -0.00596978
-0.164872 -0.744134 0.79925
0.00175473 -0.913986 0.585415
-0.295586 -1.03049 -0.00653905
-0.169141 -1.01993 0.283424
-0.457991 -0.920458 0.271276
0.174904 -1.03203 -0.296346
0.467876 -0.933323 -0.284753
-0.462478 -0.928776 -0.286213
-0.172094 -1.03074 -0.296901
0.175194 -0.762399 -0.825607
0.00011147 -0.929839 -0.600893
-0.175282 -0.762975 -0.825568
0.637397 -0.743522 -0.495136
0.728642 -0.759906 -0.180274
0.289141 -0.497946 -1.01377
0.481194 -0.653481 -0.805794
0.936992 -0.269465 -0.519457
0.766426 -0.468347 -0.691474
0.801209 -0.173436 -0.8089
0.896209 -0.558883 -0.00426104
1.0283 0.00553205 -0.33866
1.00737 -0.275545 -0.196362
1.00617 -0.272824 0.187488
1.02632 0.0105659 0.328823
0.297044 -0.183438 1.0868
0.591243 0.00053842 0.97025
0.299188 0.181622 1.0833
-0.620546 -0.730276 0.472943
-0.458557 -0.633298 0.775589
-0.740598 -0.45084 0.662171
-0.47766 -0.654078 -0.804503
-0.631283 -0.739498 -0.495418
-0.757885 -0.466949 -0.687376
0.607741 0.000577641 -1.0022
0.30728 -0.187751 -1.12203
0.30757 0.188788 -1.12252
1.02059 0.296069 0.193329
1.01632 0.28957 -0.191635
0.916441 0.578674 0.00957481
-0.657373 0.868823 0.0991496
-0.622502 0.882031 0.246937
-0.531057 0.95537 0.150747
-0.777537 0.671621 0.424811
-0.707864 0.78479 0.340119
-0.820599 0.677723 0.273977
-0.419038 0.951602 0.433617
-0.569816 0.879164 0.394938
-0.503012 0.85583 0.533825
-0.867709 0.0888381 0.688353
-0.874706 0.235644 0.646986
-0.940613 0.140113 0.555308
-0.670281 0.417694 0.802338
-0.781287 0.330417 0.732353
-0.682521 0.263464 0.856205
-0.920651 0.420917 0.433475
-0.864068 0.384765 0.58732
-0.834876 0.523808 0.515867
-0.0820907 0.691433 0.89669
-0.232951 0.647824 0.900989
-0.134057 0.554588 0.978793
-0.413454 0.801325 0.682983
-0.328085 0.733075 0.799431
-0.260193 0.856938 0.696257
-0.423834 0.427722 0.958605
-0.384435 0.585462 0.889412
-0.52401 0.51169 0.860228
-0.716104 0.633767 0.582982
-0.628635 0.578549 0.733215
-0.570971 0.729508 0.640664
-0.39552 1.02328 0.161182
-0.448445 0.999389 0.0183219
-0.266302 1.00493 0.444833
-0.33423 1.0259 0.306791
-0.157438 1.08979 0.0195668
-0.244239 1.07276 0.165492
-0.0898369 1.09814 0.165619
0.0845051 0.691674 0.897213
0.00104266 0.794655 0.812892
0.177647 0.952082 0.593734
0.0908877 0.883952 0.709517
0.262962 0.857784 0.697503
-0.0889377 0.883683 0.709098
-0.175606 0.951553 0.593081
0.453424 1.00152 0.0176946
0.399542 1.02504 0.161142
0.536762 0.958222 0.150527
0.0911374 1.09833 0.165651
0.246607 1.0735 0.165533
0.159214 1.09021 0.0194236
0.422889 0.953282 0.434656
0.337332 1.02717 0.307202
0.268708 1.00571 0.445471
-0.091438 1.03214 0.459803
0.0929276 1.03237 0.460037
0.000597581 1.08169 0.312852
-0.390926 1.00701 -0.128577
-0.525949 0.941258 -0.120249
-0.0884773 1.07993 -0.131274
-0.240958 1.05499 -0.131611
-0.411056 0.918554 -0.432378
-0.327059 0.994573 -0.288749
-0.260894 0.968754 -0.441504
0.532235 0.943941 -0.121842
0.395528 1.00863 -0.129635
0.26514 0.969648 -0.44349
0.331379 0.995703 -0.290324
0.417257 0.920219 -0.4356
0.243735 1.05587 -0.132164
0.0900509 1.08027 -0.131474
-0.0828754 0.68414 -0.922212
0.00213902 0.779967 -0.831897
0.0872056 0.684926 -0.922848
-0.173556 0.919701 -0.599124
-0.088313 0.859232 -0.721069
-0.259306 0.834355 -0.70902
0.264801 0.835457 -0.711222
0.0925078 0.85946 -0.721798
0.177628 0.919627 -0.6005
0.000828316 1.04815 -0.292512
0.0919719 0.99418 -0.45599
-0.0894531 0.993845 -0.455339
-0.613351 0.860388 -0.228557
-0.653513 0.860881 -0.0692637
-0.495395 0.828347 -0.540611
-0.559609 0.850465 -0.392439
-0.806342 0.660805 -0.264059
-0.695032 0.761982 -0.334452
-0.763427 0.651938 -0.42818
-0.136417 0.554351 -1.01235
-0.235967 0.64272 -0.928169
-0.528902 0.509131 -0.88702
-0.388812 0.582155 -0.916951
-0.430904 0.429195 -0.991594
-0.329699 0.721418 -0.819936
-0.411261 0.781521 -0.697035
-0.935434 0.130814 -0.569528
-0.870109 0.228228 -0.664426
-0.869356 0.0812224 -0.708994
-0.82261 0.509687 -0.525918
-0.854661 0.37494 -0.601189
-0.909031 0.409078 -0.439564
-0.69037 0.262014 -0.884457
-0.781249 0.325196 -0.753561
-0.673937 0.414352 -0.826827
-0.566034 0.711637 -0.654375
-0.627675 0.569565 -0.752684
-0.707257 0.61776 -0.595414
-0.75054 0.781277 0.0144795
-0.893153 0.561396 -0.175
-0.830514 0.676544 -0.0801208
-0.836222 0.682852 0.104343
-0.90325 0.572215 0.190338
-0.976083 0.00128891 -0.484975
-0.987517 0.140588 -0.423671
-1.0398 0.147545 -0.0934069
-1.02309 0.145439 -0.261541
-1.04001 0.00630025 -0.17085
-0.978056 0.283506 -0.353248
-0.949172 0.417609 -0.276545
-0.991539 0.150158 0.41631
-0.976337 0.0122125 0.472591
-0.958403 0.428472 0.281125
-0.9856 0.292916 0.351453
-1.04322 0.0115999 0.171156
-1.02677 0.153213 0.261997
-1.04299 0.150936 0.101112
-0.968348 0.433201 -0.087766
-1.01923 0.292865 0.00706945
-0.973042 0.43853 0.104821
0.628985 0.885538 0.247248
0.664742 0.872742 0.0984052
0.507572 0.857848 0.535591
0.575283 0.881931 0.396194
0.828409 0.682428 0.274484
0.714773 0.788649 0.341226
0.784364 0.675742 0.426622
0.136787 0.554961 0.979664
0.235964 0.64864 0.90258
0.528045 0.513969 0.863409
0.388092 0.587131 0.89212
0.427206 0.429049 0.961553
0.331503 0.734314 0.801422
0.417379 0.802955 0.685023
0.943841 0.139497 0.557521
0.878366 0.236934 0.649917
0.872027 0.087167 0.69236
0.841055 0.528265 0.518105
0.868564 0.388331 0.589561
0.92662 0.425523 0.434737
0.686304 0.264124 0.859954
0.785436 0.332682 0.735577
0.674577 0.420254 0.805684
0.576096 0.732224 0.643299
0.633593 0.581667 0.73633
0.722164 0.637595 0.585749
-0.144731 0.409969 1.04573
0.00129134 0.469912 1.03039
-0.43473 0.270516 1.01068
-0.294707 0.342496 1.03942
0.001606 0.160111 1.12506
-0.148389 0.250022 1.09604
-0.147459 0.0895216 1.12412
-0.862411 -0.0720961 0.687756
-0.788783 0.00615353 0.790625
-0.576235 -0.171951 0.952328
-0.689244 -0.0841294 0.881206
-0.672677 -0.25123 0.854867
-0.692552 0.0928604 0.881421
-0.581496 0.178537 0.952608
0.00193464 -0.460259 1.03716
-0.140435 -0.40329 1.05157
-0.129435 -0.537768 0.982239
-0.146192 -0.0948094 1.1263
-0.145276 -0.251317 1.10146
0.00203387 -0.165804 1.13043
-0.415061 -0.415246 0.959131
-0.288949 -0.337171 1.04279
-0.428888 -0.265202 1.01196
-0.448093 0.0928513 1.03717
-0.446041 -0.0914816 1.03788
-0.298372 -0.00138538 1.09738
-0.98188 -0.125192 0.414171
-0.92973 -0.118057 0.55368
-1.03535 -0.129302 0.0962453
-1.01842 -0.128412 0.258127
-0.894164 -0.392285 0.427699
-0.967263 -0.267084 0.346112
-0.934143 -0.401198 0.271619
-0.933797 -0.129947 -0.571238
[...]
POINT_DATA 642
SCALARS Mean_Curvature double 1
LOOKUP_TABLE default
1.6225
1.62338
1.60548
1.63918
1.90612
1.6512
1.74733
1.69656
1.68336
1.86642
1.68327
1.88832
1.82414
1.69637
1.72772
1.71361
1.6231
1.5966
1.67377
1.79427
1.57588
1.34872
1.67873
1.84282
1.79911
1.68502
1.41688
1.54499
1.64839
1.81607
1.59521
1.79324
1.56299
1.83103
1.60618
1.60734
1.79691
1.56158
1.56009
1.81485
1.42032
1.33967
1.70977
1.81706
1.82968
1.80599
1.71082
1.9418
1.70719
1.67235
1.6622
1.88536
1.64769
1.69458
1.70834
1.6175
1.8606
1.82089
1.31632
1.22082
1.12922
1.30627
1.79182
1.54994
1.77377
1.65153
1.3816
1.75646
1.83433
1.63938
1.77343
1.90188
1.49591
1.61964
1.31267
1.60075
1.60427
1.80981
1.72793
1.66399
1.69165
1.75393
1.73684
1.72449
1.66444
1.51029
1.8071
1.74006
1.84035
1.75412
1.80517
1.44831
1.66814
1.71197
1.33804
1.55484
1.44998
1.50017
1.78384
1.94023
1.66958
1.76565
1.78897
1.71715
1.65312
1.86576
1.79267
1.39342
1.66004
1.92389
1.90459
1.6501
1.5569
1.58299
1.60098
1.85194
1.75029
1.67379
1.71577
1.74391
1.79902
1.62279
1.73116
1.7194
1.64261
1.73196
1.61782
1.59204
1.69216
1.63957
1.61366
1.71352
1.8143
1.55938
1.84937
1.48858
1.52744
1.75976
1.92621
1.68791
2.00504
1.94749
1.47893
1.61475
1.36366
1.47894
1.6245
1.76429
1.76437
1.67864
1.58159
1.75417
1.75424
1.93337
1.45538
1.91385
1.72679
1.7499
1.739
1.5635
1.28383
1.50083
1.66665
1.77924
1.74096
1.86273
1.8169
1.7668
1.86454
1.85081
1.74314
1.84955
1.81156
2.03765
1.70234
1.73316
1.72534
1.84151
1.82406
1.77092
1.71339
1.67156
1.61143
1.69531
1.68287
1.70787
1.66747
1.66004
1.67699
1.69808
1.68697
1.68808
1.76584
1.6375
1.86884
1.85633
1.64719
1.78567
1.77837
1.70767
1.69841
1.71701
1.70753
1.69256
1.71352
1.72946
1.62418
1.75005
1.73958
1.75991
1.75458
1.61752
1.83578
1.83281
1.83919
1.85802
1.85182
1.85115
1.47488
1.47007
1.48213
1.48672
1.57553
1.26125
1.57922
1.4627
1.45383
1.56172
1.21593
1.5571
1.45667
1.47489
1.70095
1.72028
1.69229
1.61866
1.64832
1.71164
1.7202
1.64293
1.52148
1.33042
1.49034
1.50444
1.32837
1.50263
1.68155
1.56032
1.25402
1.54285
1.60755
1.72562
1.76269
1.79636
1.76928
1.77375
1.81668
1.72588
1.64076
1.74061
1.82391
1.6497
1.68149
1.61896
1.82351
1.85596
1.8667
1.74998
1.82424
1.72849
1.5529
1.23707
1.43077
1.61492
1.68344
1.62167
1.6419
1.30255
1.61022
1.27722
1.62104
1.57211
1.76802
1.67934
1.71837
1.72266
1.53872
1.593
1.49128
1.37126
1.42769
1.5664
1.78452
1.67904
1.7355
1.83753
1.78295
1.82024
1.86717
1.60271
1.67696
1.69563
1.69198
1.67723
1.68198
1.69228
1.76247
1.78271
1.80741
1.83093
1.80644
1.87467
1.68979
1.7273
1.71244
1.70779
1.71258
1.74066
1.56014
1.53802
1.69176
1.66466
1.60282
1.55444
1.67946
1.87335
1.78245
1.77639
1.7756
1.78985
1.7169
1.74587
1.88701
1.81059
1.84264
1.7148
1.75599
1.86762
1.80577
1.7879
1.78615
1.7045
1.75203
1.74848
1.62845
1.77065
1.38917
1.58275
1.57392
1.58988
1.48961
1.67269
1.65617
1.35829
1.6512
1.70564
1.48133
1.35785
1.55493
1.51103
1.55095
1.49771
1.48987
1.51818
1.46666
1.47566
1.4424
1.34616
1.39568
1.41972
1.89156
1.83245
1.80391
1.81363
1.84449
1.79412
1.79338
1.68353
1.72482
1.71755
1.72182
1.669
1.75842
1.78277
1.76516
1.73088
1.70876
1.7675
1.75336
1.80062
1.63865
1.68482
1.71466
1.78597
1.74539
1.74655
1.76136
1.70202
1.81154
1.86462
1.77821
1.79009
1.8124
1.50967
1.28562
1.64465
1.57148
1.38789
1.56354
1.64367
1.82813
1.85363
1.64841
1.88436
1.91809
1.81997
1.63628
1.81163
1.72452
1.81916
1.78713
1.89146
1.58718
1.58741
1.61326
1.56621
1.56653
1.52959
1.59869
1.58822
1.59739
1.89651
1.86545
1.78749
1.84066
1.86298
1.84522
1.55381
1.71755
1.60897
1.83619
1.7863
1.85594
1.64262
1.72319
1.63986
1.80853
1.79445
1.81267
1.63817
1.76065
1.64371
1.62982
1.6821
1.6056
1.60705
1.7765
1.68816
1.74542
1.83065
1.74477
1.61951
1.66164
1.63903
1.66416
1.61925
1.66249
1.61909
1.59644
1.75503
1.68877
1.78761
1.59444
1.60297
1.60761
1.61511
1.61644
1.65643
1.67005
1.63549
1.73993
1.70131
1.60367
1.6727
1.63174
1.60329
1.65761
1.64016
1.67489
1.59778
1.7146
1.75393
1.75457
1.70559
1.75879
1.56308
1.45005
1.43158
1.50518
1.45257
1.57964
1.69945
1.64875
1.63674
1.58179
1.58959
1.53698
1.56404
1.47154
1.5134
1.44765
1.75872
1.77261
1.84064
1.80945
1.8007
1.85907
1.57977
1.66784
1.89991
1.83805
1.75873
1.8736
1.6476
1.83786
2.01887
1.91296
1.82901
2.00749
1.87827
1.54753
1.45361
1.50589
1.52377
1.48992
1.61435
1.64623
1.39211
1.29929
1.35586
1.58104
1.37748
1.67484
1.6778
1.54685
1.55245
1.4656
1.48077
1.36762
1.39291
1.38081
1.41376
1.83034
1.80524
1.78289
1.79006
1.70569
1.79622
1.68344
1.73978
1.80454
1.8242
1.5511
1.6606
1.54278
1.65282
1.66509
1.79142
1.73845
1.81481
1.57574
1.59565
1.57725
1.55211
1.56782
1.79236
1.80214
1.80172
1.73764
1.64663
1.84824
1.60713
1.75177
1.80193
1.79663
1.64917
1.75677
1.6403
1.81618
1.91345
1.89129
1.82214
1.84746
1.54572
1.4469
1.49904
1.54645
1.50749
1.85001
1.92432
1.94045
1.84919
1.80197
1.91167
1.86895
1.97916
1.87741
1.78995
1.78252
1.77607
1.77821
1.72155
1.67773
1.66995
1.74874
1.76982
1.68613
1.75455
1.77351
1.66203
1.67181
1.71646
1.66549
1.71126
1.61032
1.44476
1.5932
1.68893
1.72139
1.62956
1.57274
1.6116
1.60015
1.31251
1.57333
1.6972
1.63698
1.44919
1.20721
1.42765
1.38476
1.54155
SCALARS CoVolArea double 1
LOOKUP_TABLE default
0.0182216
0.0183896
0.017667
0.0176732
0.0179068
0.0189512
0.0190002
0.0192111
0.0180479
0.0176685
0.0178508
0.01741
0.027586
0.0290552
0.0287795
0.0289542
0.0284679
0.028829
0.0286897
0.0294234
0.0287924
0.0287328
0.0293082
0.0277587
0.0281468
0.0293149
0.0278395
0.0277233
0.0309345
0.0293725
0.0288743
0.0297719
0.0280042
0.0282583
0.0280972
0.0279366
0.0269422
0.0287225
0.0289996
0.0295239
0.0285422
0.0292878
0.0258616
0.029538
0.0258681
0.0262367
0.0297426
0.0253674
0.027169
0.0303386
0.0274489
0.0291339
0.0263589
0.0272507
0.0301599
0.0265884
0.0292719
0.0260984
0.0310408
0.02783
0.0281471
0.0312997
0.027164
0.0304018
0.027216
0.0296179
0.0271585
0.0277339
0.0300243
0.0260913
0.0294521
0.0265705
0.0298349
0.0261924
0.0299618
0.0289048
0.0254043
0.029701
0.0260872
0.0275137
0.0304358
0.0258677
0.029899
0.0266092
0.0306371
0.0279615
0.0258184
0.0299187
0.0266121
0.0300959
0.0262595
0.0293512
0.0252865
0.0254906
0.0298503
0.0258108
0.0295449
0.0262787
0.0309855
0.0264731
0.0284735
0.0315536
0.0275946
0.0316911
0.0284783
0.0301795
0.027892
0.0274253
0.0297044
0.0269441
0.0296167
0.0261765
0.0259284
0.0291604
0.0258178
0.0259198
0.0287849
0.0255314
0.0260247
0.029161
0.026383
0.0287578
0.0252988
0.0259353
0.0291679
0.0251985
0.0286782
0.0256871
0.0289608
0.0260587
0.0260287
0.0288874
0.0272534
0.0304181
0.0270424
0.0298164
0.026297
0.0276979
0.0298097
0.0257013
0.0289727
0.0267428
0.0296663
0.0266637
0.0302969
0.0296519
0.02595
0.0301392
0.0300421
0.0307114
0.0288889
0.028924
0.028584
0.0295741
0.0291398
0.0287856
0.0314098
0.0318775
0.031938
0.0294008
0.0303714
0.0301574
0.0238333
0.025705
0.0236526
0.0287668
0.0265122
0.0261342
0.0267183
0.0267523
0.029451
0.0234383
0.0257308
0.0230218
0.0296691
0.0270895
0.0271362
0.0259957
0.0266885
0.0288686
0.0249091
0.0272021
0.025138
0.0298323
0.0278585
0.0274862
0.02772
0.0279531
0.0299615
0.0326029
0.0330239
0.0329536
0.0257996
0.0240908
0.0292011
0.0266009
0.0268223
0.0265762
0.0287358
0.0249424
0.0270886
0.0298056
0.0278293
0.0276132
0.0277758
0.0296907
0.024308
0.0260212
0.0238595
0.0288158
0.0267665
0.0269784
0.0269281
0.026809
0.0293721
0.0325447
0.032616
0.0320499
0.0272269
0.024901
0.0301169
0.0279348
0.0277277
0.0285468
0.0302177
0.0251773
0.0275035
0.0305181
0.0288695
0.0279801
0.0281848
0.0302215
0.0251719
0.0272084
0.0252107
0.0297745
0.0277032
0.0272135
0.0272723
0.0277448
0.0299271
0.0340992
0.0338996
0.0337354
0.0273975
0.0245632
0.0293444
0.0278395
0.027584
0.0276925
0.0293241
0.0254087
0.0273309
0.0299781
0.028009
0.0280569
0.027673
0.0293948
0.0237139
0.0260072
0.0238522
0.0290208
0.0267901
0.0267469
0.0274677
0.0270958
0.0296458
0.0324453
0.0326322
0.0322657
0.0263942
0.0301209
0.0276787
0.0268079
0.028524
0.0236979
0.0260316
0.0296786
0.0271721
0.0271271
0.0270209
0.029673
0.0249652
0.0229007
0.0282427
0.0259031
0.0264898
0.0261568
0.0291515
0.033012
0.0326371
0.032126
0.0259377
0.0240411
0.0296329
0.0269749
0.0263353
0.0267255
0.0289147
0.0251789
0.0272685
0.0300952
0.0280265
0.0278502
0.0279597
0.0299751
0.0235579
0.0261573
0.0238028
0.0289995
0.0269399
0.0262462
0.0274587
0.027393
0.0298893
0.0330803
0.0331435
0.0327159
0.0276618
0.0254042
0.0300766
0.0281988
0.0281544
0.028425
0.030283
0.0233055
0.0259488
0.0292623
0.0269708
0.0264639
0.0271976
0.0297514
0.0239742
0.026352
0.0238349
0.0299416
0.0274634
0.0273733
0.0267016
0.0272583
0.02937
0.0332144
0.0329375
0.0332982
0.0252401
0.0230025
0.0293027
0.0264814
0.0259455
0.0262871
0.0286932
0.0234663
0.0257312
0.0290076
0.026564
0.0259303
0.0270062
0.0296586
0.0234834
0.025886
0.0236552
0.0288351
0.026707
0.0263023
0.0267674
0.0269886
0.029231
0.0328512
0.03274
0.0324319
0.0265342
0.0237596
0.0304662
0.0278603
0.0274087
0.0278758
0.0305381
0.0257185
0.0280223
0.0315295
0.0290867
0.0291584
0.0287053
0.0307462
0.0252047
0.0279929
0.0255767
0.0308393
0.0287566
0.0279788
0.029215
0.0291921
0.0316015
0.0343312
0.0347439
0.0344182
0.0274177
0.0255048
0.0294679
0.0277493
0.0282908
0.0281552
0.0302377
0.0248368
0.0277475
0.0293526
0.027895
0.0277325
0.0280863
0.0294525
0.0241494
0.0262105
0.0239157
0.0299628
0.0273719
0.0278552
0.0267797
0.0268535
0.0290158
0.0325478
0.0323379
0.0328509
0.0235264
0.0257447
0.023405
0.0287592
0.0266598
0.0264969
0.0264503
0.0266601
0.0288594
0.0234939
0.025414
0.0232187
0.028656
0.0263505
0.0265351
0.0262395
0.0262111
0.0285395
0.0236814
0.0260238
0.0238855
0.0288665
0.0267619
0.0265499
0.0268511
0.0268623
0.028859
0.0317975
0.0317976
0.0319466
0.0254259
0.0232433
0.0287627
0.0264292
0.0255628
0.0260216
0.0279063
0.0236456
0.0258245
0.0287807
0.0266618
0.0264181
0.0267051
0.0288667
0.0231901
0.0253212
0.0233279
0.0278586
0.0259174
0.0254747
0.0262975
0.0263131
0.0286497
0.0318653
0.0318196
0.0314396
0.0254605
0.0234711
0.0280235
0.0260792
0.0270174
0.0266001
0.0293336
0.0234812
0.0254106
0.0292361
0.0265361
0.026869
0.0259885
0.027973
0.0249498
0.0272231
0.0248925
0.0299988
0.0281709
0.0276391
0.0272962
0.0280324
0.0298371
0.0316955
0.0324836
0.032526
0.0260889
0.0236247
0.0296301
0.0273101
0.0271405
0.0273436
0.0292995
0.0252784
0.0271875
0.0298566
0.0278782
0.0280757
0.0276441
0.0295832
0.0236802
0.0258164
0.0240267
0.0285671
0.0262358
0.0263701
0.0276275
0.0269427
0.0295345
0.0323978
0.0322764
0.0319863
0.0258972
0.0296138
0.0270373
0.0267928
0.0290242
0.023982
0.0261032
0.0301253
0.0275357
0.0276979
0.0270357
0.0296284
0.0255666
0.0233709
0.0289604
0.0265907
0.0270049
0.0268695
0.0297372
0.0330633
0.033138
0.0326343
0.0264014
0.0294656
0.027358
0.0274931
0.0299568
0.0261871
0.0300097
0.0274537
0.0270849
0.0293355
0.0277203
0.0303207
0.0284928
0.0283034
0.0302652
0.0329815
0.0333122
0.0333117
0.02561
0.0286322
0.0264738
0.0264562
0.0284694
0.0259044
0.0286758
0.0266808
0.0265858
0.0286434
0.0252784
0.0282403
0.0260045
0.0262533
0.0285273
0.031654
0.0315556
0.0314892
0.0270448
0.0291907
0.0273709
0.0277412
0.0297083
0.0260792
0.028554
0.0269894
0.0270435
0.0291782
0.0256466
0.0293539
0.0267687
0.0260935
0.0280964
0.0319125
0.0314478
0.0320364
0.0269123
0.0307916
0.0282184
0.0282909
0.0309119
0.0280712
0.0317957
0.0292907
0.0288483
0.0309792
0.0281935
0.0311143
0.0289684
0.0293222
0.0317995
0.0347482
0.0351214
0.0347973
0.025687
0.0296869
0.0268004
0.0264493
0.0285481
0.0263024
0.0299468
0.0272464
0.0276033
0.0301838
0.0266323
0.0287726
0.0270464
0.0279205
0.0304083
0.0331189
0.0334483
0.0325207
SCALARS SignedDistance double 1
LOOKUP_TABLE default
1.77012
1.74765
1.67485
1.62209
1.41945
1.44956
1.41739
1.46344
1.6399
1.58385
1.67958
1.62576
1.65449
1.39631
1.41508
1.4042
1.72558
1.74959
1.77393
1.41503
1.85823
1.87505
1.39177
1.61238
1.45788
1.41033
1.80499
1.73384
1.29067
1.37836
1.81483
1.352
1.68205
1.41909
1.58009
1.60238
1.52053
1.6197
1.57664
1.34973
1.74678
1.81351
1.71006
1.51622
1.59385
1.46655
1.48304
1.62955
1.37996
1.4064
1.42633
1.55035
1.74151
1.38138
1.38975
1.73011
1.54905
1.57231
1.90043
1.91435
1.89554
1.88812
1.6073
1.79447
1.60866
1.80463
1.8909
1.38639
1.57136
1.737
1.64523
1.54356
1.83955
1.83238
1.92373
1.79191
1.74733
1.48016
1.67429
1.4281
1.37954
1.60142
1.44174
1.46474
1.43051
1.47399
1.52301
1.4057
1.33464
1.36526
1.4256
1.81292
1.69556
1.72284
1.84294
1.70925
1.77869
1.72609
1.37587
1.53338
1.32981
1.26854
1.34602
1.27731
1.31178
1.53311
1.38297
1.86684
1.7617
1.49281
1.59082
1.69433
1.66349
1.62156
1.61106
1.48037
1.57697
1.64988
1.51967
1.52689
1.41335
1.59485
1.56715
1.53178
1.56566
1.60068
1.60759
1.64354
1.51911
1.58556
1.64244
1.54645
1.55296
1.53829
1.5539
1.665
1.66785
1.35956
1.52445
1.69378
1.59468
1.49194
1.72579
1.7943
1.78104
1.7493
1.70991
1.35574
1.37511
1.43088
1.65837
1.5516
1.61592
1.52414
1.72741
1.61104
1.34385
1.27836
1.27876
1.74251
1.87874
1.80136
1.74035
1.64933
1.68805
1.58311
1.61484
1.68088
1.49702
1.55093
1.45608
1.54835
1.52574
1.62316
1.42873
1.46683
1.41413
1.64095
1.54992
1.55401
1.41
1.41279
1.45027
1.40428
1.39226
1.38091
1.39924
1.40177
1.40291
1.48831
1.43385
1.4409
1.66312
1.75477
1.46759
1.56408
1.73263
1.64702
1.64188
1.41053
1.38264
1.38961
1.36987
1.37744
1.36946
1.38855
1.73763
1.64878
1.66559
1.63787
1.6411
1.72501
1.47846
1.55387
1.46401
1.44879
1.44895
1.54854
1.83181
1.84042
1.81327
1.82332
1.87315
1.91011
1.88627
1.82087
1.81556
1.86559
1.89372
1.83939
1.81018
1.80719
1.52951
1.62058
1.53042
1.78404
1.70741
1.68249
1.68205
1.70776
1.77595
1.89263
1.88886
1.89974
1.90471
1.83062
1.78405
1.88359
1.92794
1.90483
1.83027
1.43207
1.48709
1.47945
1.46551
1.38367
1.57411
1.66864
1.69658
1.64596
1.61952
1.7519
1.69274
1.79244
1.4705
1.58766
1.52928
1.68734
1.6003
1.71921
1.80391
1.91721
1.86558
1.7764
1.75051
1.74564
1.78088
1.90688
1.87823
1.90094
1.83191
1.89249
1.70386
1.68957
1.72702
1.71299
1.81681
1.77028
1.84159
1.89712
1.87289
1.81614
1.61883
1.71184
1.43297
1.5205
1.64015
1.57666
1.54164
1.45116
1.41186
1.37714
1.38862
1.39038
1.38284
1.38659
1.60239
1.529
1.52366
1.51097
1.5177
1.59806
1.41844
1.4588
1.40676
1.40712
1.39352
1.44523
1.46131
1.46744
1.39232
1.43285
1.45585
1.46282
1.43691
1.57143
1.49911
1.42631
1.45279
1.48871
1.44964
1.40185
1.36859
1.38432
1.42735
1.38962
1.36623
1.35946
1.43323
1.38113
1.39691
1.39745
1.38142
1.38562
1.71831
1.65771
1.84733
1.78731
1.72197
1.75719
1.77384
1.69366
1.77148
1.83577
1.8113
1.76762
1.86426
1.85854
1.69708
1.72328
1.69744
1.76289
1.74745
1.72378
1.76314
1.75068
1.7878
1.83239
1.81327
1.80843
1.54109
1.61972
1.37798
1.44804
1.44203
1.44929
1.36717
1.39147
1.35542
1.27566
1.29962
1.29203
1.31269
1.32563
1.38904
1.32428
1.3547
1.3003
1.28612
1.34427
1.30724
1.29593
1.28249
1.30058
1.26316
1.3098
1.49006
1.43397
1.64816
1.56046
1.34037
1.43647
1.42721
1.80638
1.8845
1.78632
1.86257
1.88923
1.84311
1.74792
1.58024
1.59705
1.65702
1.4636
1.52327
1.40435
1.7487
1.64547
1.70652
1.65047
1.67322
1.54699
1.6423
1.63362
1.62062
1.6513
1.64982
1.68496
1.59854
1.61908
1.59639
1.52853
1.57452
1.61571
1.49598
1.5308
1.44224
1.66673
1.61168
1.64093
1.47018
1.46937
1.41623
1.56363
1.52082
1.5554
1.40968
1.4654
1.47242
1.61314
1.54774
1.5849
1.60329
1.59754
1.59149
1.59939
1.537
1.58399
1.56123
1.47871
1.51094
1.58186
1.55467
1.57229
1.54642
1.57221
1.64315
1.63979
1.66719
1.57308
1.60745
1.55598
1.62704
1.62264
1.60775
1.59128
1.59621
1.58934
1.57489
1.60759
1.52117
1.54415
1.572
1.54562
1.5336
1.66287
1.62275
1.56881
1.59222
1.62312
1.57662
1.53448
1.47867
1.56402
1.47895
1.54518
1.57449
1.59502
1.61993
1.58505
1.56813
1.51563
1.52363
1.51204
1.63156
1.63944
1.61971
1.61744
1.70337
1.66398
1.70734
1.38894
1.44424
1.42225
1.42659
1.33692
1.53462
1.62382
1.65491
1.60006
1.5794
1.71063
1.6496
1.74711
1.40267
1.52666
1.45993
1.64984
1.54729
1.67924
1.66614
1.73255
1.69411
1.69193
1.7214
1.70533
1.73626
1.77711
1.80797
1.8324
1.78349
1.78054
1.68251
1.64555
1.71623
1.69882
1.7714
1.74154
1.7795
1.75949
1.75833
1.76086
1.37175
1.36558
1.3689
1.35553
1.39028
1.45716
1.39757
1.41869
1.41208
1.37758
1.46228
1.4376
1.46388
1.43489
1.39514
1.34178
1.38034
1.37974
1.6724
1.62792
1.65502
1.68839
1.69371
1.48147
1.50065
1.48456
1.53981
1.58867
1.61562
1.68486
1.65946
1.57041
1.53405
1.61533
1.57906
1.64902
1.43862
1.63124
1.52314
1.41927
1.43532
1.68927
1.76987
1.72629
1.6783
1.67634
1.63027
1.48968
1.55724
1.66893
1.72208
1.65144
1.68363
1.56079
1.50015
1.32915
1.40879
1.40915
1.32972
1.32454
1.28948
1.29657
1.29794
1.27814
1.35817
1.27952
1.30592
1.30528
1.28425
1.28727
1.2907
1.28752
1.66034
1.78937
1.72766
1.66854
1.68473
1.7364
1.84823
1.78681
1.83515
1.85357
1.77384
1.71002
1.73977
1.83491
1.88456
1.81899
1.85332
1.77044
