# vtk DataFile Version 4.2
vtk output
ASCII
DATASET POLYDATA
POINTS 642 double
-109.963 207.932 65.5353
116.922 210.119 63.8886
-99.0326 -209.082 -3.21947
111.287 -215.656 -5.50892
2.45602 -140.106 271.05
0.0292953 170.425 242.759
-0.48198 -141.7 -271.062
-2.7018 134.512 -270.018
196.318 -0.446644 -193.041
208.947 3.97338 180.227
-186.017 -2.83532 -191.681
-206.509 24.4869 177.82
-189.633 139.117 128.541
-147.313 90.9343 248.671
-84.5604 243.726 158.206
88.79 243.51 159.189
0.22678 245.449 62.5376
86.2196 163.347 -183.052
-73.4166 165.029 -179.864
-139.425 82.9652 -264.651
-159.798 99.5614 -129.412
-184.067 -5.5194 25.0444
148.525 96.7102 248.151
199.423 142.546 128.869
-132.635 -79.5322 251.803
0.396597 -18.6063 305.723
-163.282 -104.321 -129.171
-164.612 -110.879 100.972
-1.46406 1.35581 -324.89
-143.627 -89.6053 -265.579
170.46 104.88 -139.81
150.086 89.114 -268.558
177.988 -114.201 100.042
142.458 -79.3898 257.283
72.8494 -198.299 144.001
-66.6368 -194.952 143.549
2.92682 -266.487 -5.88485
-62.3973 -195.12 -156.081
72.3015 -203.254 -142.008
150.22 -89.2606 -268.439
159.491 -103.267 -121.769
197.51 -2.7977 24.1818
-154.236 180.888 98.1074
-154.238 198.108 140.303
-103.815 235 114.975
-196.193 50.7577 212.951
-187.733 121.64 182.584
-208.76 73.0642 161.769
-45.6981 216.215 214.515
-120.537 177.423 210.823
-84.4383 132.366 255.313
-41.5895 263.121 114.767
-59.3365 237.089 66.2198
47.696 215.685 214.518
-0.0731965 257.004 166.638
64.7944 236.152 63.9501
42.6942 262.518 114.59
111.05 236.237 113.012
-13.6395 186.894 -48.0041
-79.1052 139.569 -67.4247
82.5194 147.305 -73.7973
19.4386 189.516 -46.5939
-50.6226 161.694 -225.112
-2.22163 170.512 -175.37
57.9331 161.187 -224.354
-127.905 136.007 -160.683
-148.262 151.617 -19.5658
-77.6758 117.3 -281.151
-109.78 142.871 -223.95
-183.936 54.1785 -156.687
-160.765 96.477 -201.47
-179.979 38.2642 -228.332
-169.706 127.022 60.6509
-192.081 -2.59123 -115.24
-188.739 61.5188 -74.429
-196.486 77.5454 95.4645
-202.531 19.2412 120.703
162.487 200.073 141.834
163.777 184.39 95.9188
88.7692 133.974 255.151
127.656 179.272 213.883
209.346 90.2094 149.903
193.63 130.772 183.999
193.956 46.8746 215.322
-86.2063 40.3675 284.139
-0.129742 73.9142 277.495
-183.205 -32.7012 214.871
-150.406 1.78096 262.555
2.46518 -84.2509 308.116
-77.4956 -50.8672 297.054
-68.7429 -116.851 270.242
-185.16 -48.1274 75.6931
-188.727 -43.8377 156.563
-184.325 -62.6656 -167.252
-176.673 -45.5639 -77.7135
-138.01 -167.194 47.1084
-161.596 -126.194 4.92859
-133.531 -167.925 -41.6422
-151.995 -1.29867 -281.934
-182 -45.1253 -228.497
-3.59819 78.3298 -313.588
-83.4029 48.5457 -316.731
-81.3667 -124.025 -282.064
-85.2087 -48.3662 -314.128
-1.36149 -81.0525 -310.742
121.382 148.579 -226.451
87.7137 119.504 -280.174
161.232 155.991 -24.1104
139.789 139.535 -169.682
192.687 49.8245 -229.477
177.277 103.802 -204.811
193.839 63.0084 -169.492
148.478 -173.463 42.2403
133.528 -165.232 125.662
97.6038 -213.719 67.0001
190.926 -37.1821 221.488
169.789 -92.8196 193.651
198.95 -47.0885 156.773
37.4994 -170.147 217.984
108.875 -141.498 216.816
71.8323 -116.65 271.973
34.3927 -239.804 57.2088
55.7617 -251.864 -7.94141
-34.8005 -168 218.199
2.78722 -209.707 153.271
-45.9804 -249.032 -6.55807
-27.9569 -237.536 57.1065
-89.5488 -208.972 68.0978
36.3723 -252.597 -72.1874
92.2876 -225.868 -69.625
-81.1599 -218.884 -70.8794
-27.9151 -250.474 -72.1281
51.2325 -167.301 -231.955
1.6178 -225.157 -134.913
-57.6829 -169.296 -229.537
124.77 -157.068 -146.48
144.375 -177.624 -39.5874
83.3415 -121.3 -280.719
122.498 -150.619 -226.782
192.825 -59.7382 -178.682
177.756 -102.375 -209.44
193.09 -50.7874 -229.093
173.14 -134.898 2.74872
202.851 0.326593 -117.399
189.936 -45.6195 -68.2886
199.174 -57.9351 72.3071
213.025 10.979 110.949
83.8574 -49.9365 299.221
154.653 -5.79021 269.062
90.3614 36.6285 286.168
-125.621 -159.191 126.515
-102.862 -139.564 215.713
-161.996 -91.9738 188.913
-116.322 -152.151 -227.229
-128.999 -142.324 -156.893
-167.635 -103.733 -203.57
156.304 0.00779667 -278.727
87.5543 -51.6896 -312.918
87.1798 51.8013 -312.833
206.256 79.4828 92.124
193.864 65.0448 -73.8987
178.223 132.725 57.8179
-131.867 196.879 78.8049
-132.148 209.779 108.824
-107.873 222.949 89.0207
-176.906 167.563 133.882
-156.3 189.874 126.116
-174.488 160.642 118.434
-97.592 243.572 132.669
-129.691 219.138 129.716
-122.874 225.022 148.97
-209.05 34.7217 190.81
-212.78 62.2132 181.036
-212.567 49.3454 171.353
-169.807 107.472 218.807
-193.985 84.4658 200.942
-173.9 70.2662 234.271
-199.07 109.882 142.871
-204.599 96.6994 166.65
-195.023 133.94 148.426
-23.4462 195.249 233.021
-64.7149 178.953 234.796
-43.3429 153.403 247.936
-102.608 214.828 186.101
-84.7949 200.006 213.387
-65.4838 232.304 189.439
-116.888 111.921 255.859
-103.673 156.736 236.394
-136.132 134.874 232.538
-174.374 164.698 159.755
-157.385 151.213 199.668
-140.865 192.417 174.021
-80.7834 240.43 90.7467
-86.4735 224.312 65.8781
-63.1558 260.514 132.846
-72.0016 252.753 115.961
-31.318 243.797 64.7935
-50.3208 252.606 92.5255
-21.4647 257.28 91.9079
24.2804 195.107 233.06
-0.0270515 219.366 215.731
45.6337 254.351 165.229
24.2812 240.406 193.076
68.8733 231.925 189.747
-23.92 240.438 193.084
-44.4973 254.774 165.009
93.626 224.126 62.7753
87.6213 240.394 89.6227
115.777 224.281 87.9983
21.1126 257.288 91.3512
53.634 251.813 91.6613
32.75 243.464 62.9145
103.313 244.525 132.129
77.356 252.433 114.727
65.871 259.739 132.702
-23.7569 269.267 135.852
23.5661 268.974 136.006
-0.480103 265.252 115.612
-71.7454 214.337 40.3247
-96.9469 199.101 39.2337
-14.1088 226.449 30.0883
-39.6545 224.264 36.8211
-78.2618 160.952 -162.87
-33.0228 175.19 -61.4612
-48.9989 172.429 -148.225
98.3798 201.798 32.7231
81.5462 211.416 34.2618
59.111 172.598 -145.901
54.2374 168.169 -57.6749
91.6506 163.029 -158.099
43.957 224.067 34.4452
16.6685 226.822 28.6813
-28.5693 151.789 -247.814
-0.90882 161.523 -225.361
28.7715 152.052 -246.241
-46.8426 170.211 -176.491
-29.3043 164.763 -203.246
-65.2752 164.252 -202.346
76.6176 162.741 -206.363
29.9757 163.709 -204.925
52.6637 166.514 -178.885
2.55705 189.952 -44.8167
21.8463 177.744 -130.91
-22.1376 176.302 -132.987
-138.585 138.428 -36.0522
-128.966 177.084 42.4089
-102.182 152.781 -176.197
-115.429 141.689 -150.033
-148.098 136.438 -91.858
-146.946 132.667 -113.649
-145.052 123.137 -138.195
-43.1809 127.26 -277.797
-65.2761 146.219 -253.307
-126.953 117.384 -246.622
-97.3751 134.06 -253.009
-109.479 102.066 -276.8
-80.9674 156.437 -226.141
-91.0479 157.016 -201.884
-186.536 29.7286 -176.45
-181.271 48.9316 -199.234
-184.444 16.9642 -211.89
-161.317 98.1349 -167.091
-172.881 75.4046 -184.44
-177.14 73.5169 -140.988
-164.308 61.6952 -247.211
-171.969 71.1533 -216.287
-156.828 92.9657 -231.502
-120.257 142.178 -193.382
-139.471 121.747 -213.602
-143.658 122.041 -181.428
-146.168 167.268 53.5326
-136.921 113.428 -42.0658
-148.705 158.588 17.6026
-164.211 155.661 79.874
-181.963 136.009 101.477
-190.346 -2.05365 -147.099
-192.554 31.2246 -129.99
-173.774 42.4641 -35.0825
-188.257 33.7362 -107.76
-182.033 -22.4623 -79.9879
-187.751 52.6523 -113.482
-187.557 56.7119 -96.6934
-207.62 51.8376 156.781
-205.425 28.6924 161.372
-194.814 110.926 117.447
-202.455 79.0046 137.611
-198.899 10.4097 82.3787
-202.015 46.6386 111.303
-194.895 39.8695 71.1156
-187.192 80.7699 -1.62425
-183.048 83.4181 30.2531
-186.03 102.468 75.4743
140.627 212.362 106.432
140.916 199.542 78.5493
128.899 225.479 150.615
137.27 221.652 127.86
183.795 164.814 114.935
165.362 193.171 122.878
186.35 170.776 134.512
45.6938 153.476 247.728
69.2399 178.668 235.444
141.103 140.505 234.377
109.58 158.866 238.491
119.675 116.939 256.456
90.573 199.64 214.87
108.868 214.857 188.171
208.466 43.161 167.882
207.357 69.6362 181.694
206.239 21.7334 195.281
204.112 140.055 149.768
207.687 111.029 164.512
208.22 119.459 138.66
173.998 72.7197 233.787
194.638 94.4168 200.528
173.577 116.294 219.079
148.698 193.928 177.906
164.708 156.473 202.687
182.919 168.212 163.72
-50.0408 106.701 266.416
-0.0457515 125.957 259.727
-120.322 71.5035 270.855
-90.5492 88.1729 271.458
-0.303021 23.2796 295.618
-48.6199 53.5172 282.495
-44.1088 8.93504 297.974
-198.052 -5.42717 193.548
-191.118 9.54429 214.799
-143.406 -40.381 260.609
-168.833 -17.314 241.812
-160.256 -55.8686 234.416
-172.202 29.2584 239.89
-152.795 48.7212 258.62
2.39746 -116.069 292.033
-30.6283 -102.128 291.811
-27.7295 -130.477 272.355
-36.6821 -35.9193 304.242
-31.962 -69.0828 303.648
1.70777 -55.2058 314.016
-102.342 -100.138 264.041
-74.353 -85.5713 287.649
-107.709 -66.9196 278.529
-120.017 21.4022 278.928
-115.322 -25.6073 284.263
-82.5507 -7.99095 298.047
-199.118 -11.7791 137.261
-198.12 -10.3447 170.893
-187.381 -18.7691 56.2004
-198.556 -15.3758 96.7774
-177.479 -75.116 133.029
-190.941 -45.1946 114.082
-176.643 -82.3502 88.2658
-186.74 -38.7003 -178.811
-191.827 -33.0649 -135.266
-169.003 -84.5997 -108.102
-185.662 -52.7412 -132.911
-176.205 -82.6879 -155.627
-189.963 -23.7466 -105.015
-185.238 -27.0602 -33.1231
-121.216 -186.601 23.0143
-137.49 -168.306 3.21207
-117.468 -190.476 -21.1192
-163.828 -121.879 53.9043
-151.75 -146.069 27.9158
-152.235 -141.79 70.638
-149.38 -133.736 -82.4063
-150.936 -146.428 -19.2073
-159.989 -117.874 -54.4524
-181.382 -56.0031 9.24597
-169.752 -95.284 -27.52
-171.547 -93.3838 36.5061
-183.413 -2.5211 -233.093
-184.417 -23.8042 -211.989
-147.801 42.0829 -276.44
-169.376 19.1631 -255.205
-168.453 -68.0095 -247.58
-171.084 -23.3327 -255.409
-149.398 -45.112 -275.895
-3.38738 109.585 -294.06
-45.4858 98.7244 -301.919
-48.0938 26.8062 -324.934
-46.7574 64.6538 -318.958
-2.4937 43.8964 -324.215
-82.0638 84.9542 -302.928
-113.919 68.0312 -294.975
-45.297 -134.102 -278.257
-47.4808 -104.094 -300.137
-0.784186 -115.663 -293.146
-116.771 -71.8741 -294.631
-85.222 -90.0452 -301.826
-113.418 -108.634 -277.929
-1.42497 -41.9859 -322.485
-47.6201 -65.0729 -315.636
-48.2623 -24.0734 -324.692
-120.318 22.6898 -303.225
[...]
POINT_DATA 642
SCALARS Mean_Curvature double 1
LOOKUP_TABLE default
0.0072466
0.00705957
0.0069435
0.00888817
0.0213152
0.00157436
0.00646369
0.00606034
-0.00196912
0.012732
0.000314756
0.00994356
0.0140991
0.0098149
0.0128483
0.0119037
0.00686451
0.0077667
0.0176348
0.0106402
-0.00433389
-0.0042261
0.00853942
0.0122311
0.0103084
0.00506753
0.00768668
0.00521093
0.00170425
0.0113995
-0.00648301
0.0125377
0.00744733
0.0115743
0.00694017
0.00687401
0.0314876
0.00531256
0.0116849
0.0118669
-0.00312107
-0.00176067
0.00653282
0.0281423
0.00768732
0.0140178
0.00876152
0.0145202
0.0111439
0.00811373
0.0089087
0.0152623
0.00907162
0.00934858
0.00681467
0.00715272
0.0127341
0.00998798
0.00984986
-0.0149347
-0.0129492
0.0121813
0.0160748
0.0022873
0.0145654
0.0140737
0.143423
0.0123809
0.0153876
0.00754697
0.00970817
0.018626
-0.0065887
0.0124408
0.0667129
0.00546848
0.00397432
0.0208456
0.00794051
0.00694335
0.00943398
0.00234273
0.0121156
0.00755707
0.00453308
0.000775836
0.0155202
0.0114139
0.0193698
0.0120044
0.0107026
0.000925607
0.0031249
0.0103506
-0.0085776
0.0092731
0.00671012
0.00442518
0.0139099
0.0175239
0.00859461
0.0132196
0.0133783
0.00879026
0.00526716
0.0197393
0.0122377
0.0724467
0.00728316
0.0219538
0.0176579
0.00727239
0.00743803
0.00632586
0.00828477
0.0166856
0.00631922
0.00303265
0.00436892
0.00727042
0.00853022
0.00303816
0.0145429
0.00434253
0.0117162
0.0155589
0.0016617
0.00934582
0.0143809
0.0125732
0.00942932
0.0153458
0.011982
0.00777383
0.00928056
0.00208378
0.00711736
0.00842545
0.0203597
0.0084812
0.0265921
0.0223748
0.00919437
0.0132188
0.0021129
0.00624211
0.0119199
0.0105245
0.0114654
0.00381734
0.0059625
0.00818188
0.0104658
0.0217575
0.00248865
0.014419
0.00614831
0.0107692
0.00996323
0.004383
-0.0211874
-0.00612493
0.00786639
0.00594623
0.010255
0.0295346
0.00282028
0.001158
0.0238918
0.0151168
0.0200122
0.0298
0.033534
0.0354704
0.00771936
0.0083466
0.0115019
0.00456948
0.0231093
0.0265553
0.0118535
0.0083788
0.00110376
0.00828037
0.00948137
0.00972279
0.0100982
0.00882104
0.00939634
0.0133678
0.00783469
0.00748123
0.0109061
0.00904607
0.025444
0.00868648
0.00876926
0.00918281
0.00790073
0.0114554
0.00764558
0.0109968
0.0111042
0.00861658
0.011312
0.0119516
0.00918828
0.0102966
0.00977766
0.00805253
0.00663032
0.00806329
0.0228296
0.00993627
0.0216919
0.0255995
0.0249912
0.00636159
0.00280875
0.00200534
0.00559676
0.0028857
0.00203229
-0.000612374
0.0175341
0.00379036
0.004224
0.0118639
-0.00508777
0.00900665
0.00164658
0.0072914
0.00944554
0.012643
0.00899465
0.00818474
-0.00207526
0.00976766
0.00536924
-0.00148685
-0.00171385
0.00252708
0.00351123
0.00246726
-0.0182327
-0.00574558
0.0129554
0.000301215
0.0312391
0.0471206
-0.00722833
0.00789926
0.0146464
0.0139829
0.0131546
0.011194
0.0194977
0.0119791
0.00465851
0.00830112
0.00561446
0.0044474
0.00534562
0.00921819
0.014017
0.0134018
0.0169236
0.0133478
0.0133189
0.0104641
-0.00439966
-0.0225166
0.0149529
0.00939669
0.00600469
0.000641671
0.0170434
-0.0121792
-0.0025842
-0.0203068
0.0291138
-0.0108708
-0.000119222
-0.00203181
0.00688112
-0.000885774
0.010461
0.00497086
0.00199798
0.0361277
-0.0207329
0.0132918
0.00783347
0.00772343
0.0153647
0.0179554
0.00567417
0.00918941
0.0226773
0.000298255
0.00764916
0.0113701
0.0107484
0.0123554
0.00901545
0.00848471
0.000363361
0.0160189
0.0139606
0.0270437
0.0188591
0.0184402
0.00754429
0.00923409
0.00993016
0.00861981
0.0104683
0.0143412
0.00213114
0.00135751
0.0129848
0.00724481
0.00411763
-0.000371484
0.00542048
0.0177797
0.00833025
0.00986437
0.0112377
0.00913972
0.00467733
0.0133204
0.0189344
0.00801974
0.00800953
0.00433973
0.00803884
0.0230603
0.0119829
0.0118186
0.0111201
0.00774496
0.0114521
0.013883
0.00499742
0.00298805
0.000592405
0.0117891
0.00268713
0.00747212
0.00399766
0.00231308
0.0170895
-0.00146065
0.00568999
0.0055484
0.0420085
0.0254399
0.00429454
0.00693001
0.00603583
0.00863883
0.00469584
0.00684084
0.00324553
0.0083061
0.00426983
0.00278612
0.00319472
-1.8562e-05
0.021528
0.00139983
0.0100621
0.00882299
0.0145773
0.0109765
0.00688002
0.00718309
0.0103322
0.00671284
0.0119997
0.00861752
0.0131229
0.0116921
0.00793914
0.00919653
0.00658664
0.0111952
0.0134184
0.0121172
0.00648654
0.00679673
0.00798696
0.00933419
0.013278
0.012041
0.0114692
0.00430441
0.0147784
0.0245624
0.013031
0.0147555
0.0134101
-0.00407232
-0.0170528
-0.00913193
0.0248678
0.046685
0.00183995
0.00649031
0.00525006
0.0151704
0.00401592
0.0171699
0.0206879
0.0152808
0.00444464
0.0117014
0.0051607
0.0139921
0.0105735
0.0192644
0.00705356
0.00846708
0.00528652
0.00593318
0.00587299
0.00487474
0.00797911
0.00718378
0.00690269
0.0216537
0.00879549
0.00667223
0.0122352
0.0113393
0.0136876
0.00464187
0.00629991
0.00369735
0.0108782
0.00674474
0.0096525
0.00543519
0.00680846
0.00520371
0.0111879
0.0110182
0.0110833
0.00439372
0.00740815
0.00511917
0.00282352
0.0108757
0.00665336
0.00683565
0.0194853
0.00722834
0.0138592
0.00734012
0.0106984
0.00661541
0.00566418
0.004437
0.00794537
0.00631184
0.0102241
0.00224957
0.00329112
0.013524
0.00800658
0.0200844
0.00696705
0.00838037
0.00756985
0.00520125
0.00555263
0.0115924
0.0067875
0.00650575
0.010674
0.0048983
0.00868671
0.0134675
0.0114712
0.00447166
0.00424571
0.0109567
0.0115233
0.00579609
0.00400042
0.0125761
0.0108211
0.00378017
0.00959366
0.00913429
-0.003912
-0.0154745
0.0235005
-0.0130559
0.0167706
0.0121614
0.0146759
0.0134859
0.00760351
0.00766057
0.00450254
0.00662182
0.0058735
0.00582859
-0.00620104
0.00959966
0.0113146
0.0119705
0.0105207
0.0126188
0.0138361
0.0194095
0.00599015
0.0187954
0.00511193
0.00191104
0.0128694
0.00308236
0.0144126
0.02834
0.0199693
0.00906771
0.0259009
0.00619985
0.00833579
0.00679044
0.0103286
0.009431
0.00368164
0.000462819
0.0165774
0.0135781
0.0313524
-0.0186143
0.00806545
-0.00602128
0.00840637
0.00252407
0.00837825
0.00765144
0.00212582
-0.000816602
0.00820917
0.00302133
0.00068708
-0.00108874
0.00972885
0.0118493
0.00968322
0.0116661
0.00152706
0.0151303
0.00537965
0.00874071
0.0117824
0.0142705
0.0018246
0.00329254
-0.000824893
0.00639415
0.0105547
0.0159795
0.0107345
0.0159849
0.0106207
0.00609475
0.00610164
0.00610151
0.00622442
0.0104672
0.0109396
0.0120222
0.00724994
0.004473
0.0111645
0.00347836
0.00609376
0.0125689
0.0105552
0.00511645
0.00983136
0.00467712
0.0139151
0.0106579
0.0241389
0.011751
0.01297
0.00569088
0.00372288
0.00366269
0.00822591
-0.0147075
0.0131884
0.0189462
0.0171892
0.0119692
0.00687381
0.00887064
0.00847803
0.0204857
0.0154507
0.0129216
0.00738059
0.00749679
0.0130225
0.00996175
0.00855272
0.00456635
0.0110016
0.0157182
0.00533213
0.0156022
0.0140664
0.00668378
0.00925828
0.0083139
0.00565327
0.00841105
0.000748757
0.00185762
0.0106312
0.0127306
0.00327287
0.011359
0.0108652
0.0178788
0.00780344
-0.008916
-0.00030464
0.00674362
0.0116587
0.0154926
-0.0241068
-0.0307217
0.0370849
0.0107035
SCALARS CoVolArea double 1
LOOKUP_TABLE default
783.884
841.412
947.248
862.911
789.49
1463.63
1236.49
1328.09
1087.29
652.732
982.649
475.041
675.771
1469.05
1327
1421.47
1176.19
836.442
668.511
1402.89
2217.17
2856.55
1652.16
685.63
1337.81
1802.67
1470.95
1506.97
2159.4
1468.27
2200.86
1358.01
1520.62
1289.39
1564.72
1571.04
617.902
1876.02
1751.62
1379.05
2616.19
2969.25
1099.33
983.827
827.234
1212.6
1531.08
554.3
1424.14
1700.58
1652.34
808.23
942.703
1518.49
1502.15
1093.41
890.01
840.272
1921.6
5448.85
3484.11
2654.5
1001.65
1831.74
1093.3
807.29
763.241
1312.4
1025.79
1033.1
952.107
984.301
2850.72
958.988
1130.66
1618.57
1231.93
1115.52
1036.28
1666.99
1627.25
1059.08
1374.84
1506.55
1839.18
2760.88
1118.74
1530.14
1144.33
1580.57
1365.12
1829.59
1195.2
844.619
2491.68
1115.38
1531.91
1657.29
1561.11
1004.95
1750.73
1622.11
1334.45
1745.82
1940.46
980.82
1397.13
1748.74
901.032
1056.14
830.358
930.497
1224.28
1653.55
1363.97
994.457
1350.97
1263.75
1425.5
1455.52
1478.39
1547.9
1007.16
1400.4
1461.77
957.869
1525.44
1312.63
1092.9
1057.49
1246.62
1036.81
1701
2099.75
1403.82
2176.58
1207.32
1453.92
1060.59
709.273
600.507
1036.65
1349.59
1124.07
2516.05
1667.78
1305.2
1581
1484.75
1893.6
1613.38
1335.07
1178.23
979.857
1779.22
780.526
1884.51
1793.78
1781.02
1457.33
1133.57
3136.02
1045.54
943.843
881.039
719.014
739.701
812.506
819.601
738.375
1249.51
758.7
775.717
390.45
1596.86
1290.51
1327.86
717.167
937.71
941.863
1450.11
1576.31
1863.96
1615.1
1498.58
1402.05
1413.56
1532.42
1632.35
1492.87
1893.95
1761.17
888.302
858.529
968.851
757.64
980.334
843.388
1009.76
1508.19
1447.65
1468.55
1484.24
1492.78
1436.85
1393.86
881.692
947.226
879.411
1071.89
962.464
1080.67
911.339
825.581
1061.21
1197.35
1241.32
1012.13
2824.53
2796.5
1609.82
1901.68
2361.17
3799.13
1471.95
2417.59
2209.91
2212.09
3559.36
1867.05
2306.66
1640.88
1362.29
1273.88
1523.67
1073.37
1199.45
750.588
816.974
1316.01
1459.58
2036.34
2402.82
2031.35
3655.29
1573.62
730.36
2538.44
1394.39
1043.43
922.488
1388.73
1174.5
1269.04
1168.71
1313.01
883.265
762.97
1185.45
945.624
885.502
1106.85
975.805
1066.26
1198.27
907.594
1132.36
925.114
1111.34
1040.68
1026.63
4723.36
1873.77
1241.16
1064.92
1364.32
1016.23
4182.76
1637.89
2387.83
637.832
2338.32
824.615
865.093
1069.13
1053.63
1335.39
1311.23
2807.51
2697.49
2208.43
1461.95
913.872
1020.69
1357.89
833.762
838.161
806.335
820.307
1951.17
1636.11
1537.46
1470.53
1417.49
1543.9
1656.38
1193.95
1243.23
1053.19
884.739
980.273
634.777
1610.85
1415.19
1568.61
1750.87
1731.06
1452.59
2314.5
2452.69
1575.34
1723.39
2311.23
2259.29
1941.76
870.673
1265.04
1444.19
1346.75
1218.88
1388.8
1512.57
1084.61
1371.09
1220.35
1626.3
1376.95
1259.89
1233.42
1439.25
1433.17
1806.35
1679.69
1849.32
1349.09
948.842
1737.52
1265.4
1419.06
1422.4
1648.16
1166.32
962.669
2066.07
1253.6
1017.92
967.4
1713.95
1180.6
1203.08
1221.95
1410.3
1152.2
1233.39
1913.16
1432.19
1776.94
2761.1
2672.35
2129.82
997.668
904.676
1558.87
1273.4
1252.19
1294.87
1623.18
1677.03
1484.22
1890.63
1545.9
1835.15
1382.32
1556.96
1461.08
1654.56
1699.49
1639.05
1489.92
1341.16
2002.22
1786.38
1988.39
1799.56
1899.9
1836.26
1297.59
1677.16
705.484
839.453
1254.01
1141.36
1308.45
2223.43
4348.63
865.709
1891.97
1393.87
2431.06
772.973
985.274
769.393
1218.33
1169.78
828.31
1191.63
1036.01
725.312
923.906
856.089
919.619
1085.81
1145.46
1293.95
1230.18
1661.06
1377.87
1364.17
1347.91
1339.71
1600.17
784.442
916.858
840.11
1228.47
1018.38
1107.56
1419.72
1238.61
1602.79
1127.43
1431.06
1188.56
1624.76
1450.27
1516.52
1339.57
1339.07
1320.98
1802.46
1570.1
1808.94
1311.24
1065.42
1626.71
1469.56
745.57
1139.74
919.506
1146.77
1283.2
1589.95
1412.14
1521.4
1373.49
1573.23
1080.62
1255.47
1232.33
904.62
1080.11
691.09
1330.27
1419.17
1580.53
1766
1752.1
1555.08
1068.59
1028.17
968.252
1019.77
1377.74
1014.84
1249.78
1128.81
1122.97
1316.24
1067.06
1749.5
989.065
921.233
1268.67
2076.51
1316.31
1938.64
2898.95
1970.58
1213.87
2572.5
1661.71
1173.09
1267.38
1260.06
1177.53
1080.15
1917.92
1711.03
1983.04
1951.95
2423.88
1487.8
1284
1327.1
1277.75
1334.13
1232.35
1398.68
1089.97
643.979
953.611
1334.08
501.307
1553.56
1202.06
714.223
1116.78
1373.68
973.324
1326.26
1092.6
2009.97
1063.3
1143.75
1478.95
1496.02
962.572
1973.73
1109.12
2542.97
1484.01
2847.3
1280.67
1181.38
1471.6
1397.65
1392.28
1370.06
1884.02
2624.91
2610.03
1924.85
1345.94
1437.13
1531.14
1371.96
1698.5
1217.7
1801
1509.31
1215.67
1317.25
2406.99
2098.54
2419.12
1808.05
1752.24
1517.75
1764.1
1775.85
1186.3
1608.54
1319.23
1284.05
1570.79
1327.6
1259.22
1190.31
1323.69
1578.5
925.213
1444.87
1049.34
1011.59
1235.51
1689.61
1420.32
1608.44
1188.74
1328.5
888.868
1196.68
1296.65
1512.53
1596.3
2051.11
1915.21
2306.16
830.479
1140.27
848.34
705.382
951.525
1283.97
1027.6
987.623
1307.78
1608
1546.52
1533.72
1599.29
1747.71
2075.86
1856.52
1504.69
1510.43
1789.71
1489.76
1459.64
1769.31
2039.07
2066.95
2199.39
2071.33
1416.74
2431.82
1219.88
980.797
955.253
1179.34
2762.86
841.487
1695.06
3664.85
1047.96
1108.12
1152.38
1799.3
5232.04
1955.39
3417.6
1654.11
SCALARS SignedDistance double 1
LOOKUP_TABLE default
105.434
103.872
95.1021
90.6021
75.4556
77.0796
76.5263
81.387
94.772
93.44
98.4649
100.697
101.13
69.5596
77.8774
75.5719
103.677
104.003
110.22
76.2269
115.598
111.45
69.4913
97.1422
77.6791
73.1306
115.544
101.174
64.8248
72.3434
108.14
69.1751
98.288
74.3821
85.5468
87.6975
84.7732
106.628
94.2595
69.2799
108.13
109.778
101.835
94.6315
93.6775
81.8709
86.0146
102.206
68.2604
70.721
73.7076
93.4489
104.686
68.4295
72.1706
103.323
92.7292
92.3854
137.09
133.49
135.627
137.454
102.219
115.107
101.737
111.447
147.635
72.3872
95.8615
103.467
98.5425
93.0431
110.413
116.467
147.187
107.979
101.979
88.9795
99.1589
74.2316
68.3864
93.8563
78.7613
80.3985
75.7696
76.1086
88.9983
71.7871
66.0408
67.9726
73.5017
109.67
98.5659
102.241
122.568
99.2031
103.609
98.9884
72.5944
94.1815
66.0593
61.8721
68.826
63.4699
65.5471
93.9495
74.1125
152.739
103.689
90.8225
96.9411
99.6912
93.495
89.4847
87.8318
84.6621
88.3008
94.9996
82.5418
83.5719
72.8052
88.5119
86.6636
84.4002
85.4042
90.0307
90.4997
90.7419
82.6847
87.4387
92.4201
86.693
93.6988
84.1099
95.6387
110.473
93.9217
70.4023
96.8447
98.5321
98.6978
91.3751
100.179
113.273
121.876
101.391
102.231
68.3882
68.8798
76.0251
92.916
86.0187
95.0147
94.723
111.002
98.1047
68.7203
66.1809
65.7689
102.639
138.742
107.68
104.236
97.0419
100.418
98.6719
96.273
99.5952
90.1723
93.2809
87.149
97.1094
99.8658
102.996
74.1382
81.5828
71.971
99.8935
100.216
98.0111
72.3728
72.5715
75.7151
70.895
69.2158
68.7665
70.0342
70.2456
69.9822
86.8218
74.1225
76.6485
99.0703
104.891
89.2636
92.5078
104.767
98.0588
98.1065
72.3638
68.5259
72.2231
67.9181
68.7281
67.9499
72.3094
104.034
97.7284
98.6063
96.7268
97.1209
103.224
87.9188
91.6595
88.4635
88.7004
88.3118
92.3879
109.343
109.666
111.304
110.307
113.089
139.982
127.233
109.738
108.958
122.759
133.612
109.955
107.854
111.27
91.8492
102.08
92.1065
114.709
105.46
105.036
103.445
104.424
107.326
136.572
135.155
136.683
142.563
111.795
108.487
113.498
151.976
137.333
118.528
78.0798
87.4128
84.3385
82.7069
71.8353
97.9727
102.226
98.9684
97.0924
96.8404
104.627
99.7068
109.868
84.2847
95.7175
92.1578
103.44
97.1328
105.043
111.977
133.058
129.591
107.129
104.794
103.913
112.964
130.141
119.525
126.603
121.348
130.778
102.588
102.056
103.143
100.999
110.261
103.59
111.007
139.337
122.279
111.001
95.0334
101.834
81.8345
90.5361
96.6449
93.142
93.8461
75.5538
72.8343
67.5944
70.6318
69.5577
68.3306
69.2425
93.1531
94.5237
90.6708
94.0973
92.0831
97.7131
72.3933
80.6587
71.9886
72.9831
69.6744
81.8267
75.473
75.5629
69.5832
75.1247
76.0446
76.9028
75.6075
96.0039
87.7397
74.5562
77.5836
82.1236
77.0691
71.3815
69.5875
69.3059
74.3421
71.9763
69.6581
71.3981
74.4649
68.7356
70.8514
70.5384
69.5399
71.1233
98.9272
97.4372
111.731
108.406
100.396
104.971
104.345
99.2309
108.712
118.131
108.235
105.335
120.027
120.507
96.0139
98.2678
96.2626
104.308
100.46
98.9981
114.104
100.857
110.722
107.867
105.833
106.035
95.6462
96.8284
72.4278
82.7606
81.6303
84.0716
72.5107
72.4349
69.6495
64.8547
64.2703
64.1128
65.2294
66.6361
73.5535
66.8687
68.9763
63.8446
62.9156
68.3358
64.6421
65.754
64.6012
65.3433
62.4352
65.1404
88.0166
77.6305
101.256
99.3811
67.6659
80.7038
78.9184
108.921
130.421
109.936
127.485
143.972
108.154
102.08
93.9401
95.7676
96.5547
86.1162
92.3099
77.0429
102.332
98.0669
100.203
100.464
100.607
94.6878
91.3917
90.2145
89.7433
93.9432
92.6328
96.2146
87.3232
89.1704
86.6755
91.3965
92.2972
93.5323
84.1756
88.4504
78.3654
93.4998
91.4125
92.1213
80.2332
78.7033
73.8776
85.0864
82.6889
84.6766
72.6004
78.4783
79.839
90.4129
85.648
87.6411
89.3228
88.9444
87.9377
87.9501
85.1303
87.4936
85.9498
80.937
82.3368
85.8479
85.3294
86.2438
84.3308
85.2794
93.3899
92.459
94.023
87.0492
89.4462
86.7241
90.0621
89.948
88.7639
88.5322
89.1759
88.7992
86.7446
89.3127
84.4796
84.7108
85.6645
84.0526
82.4951
94.0322
91.4551
85.8879
89.0022
90.9295
87.8433
85.7522
84.8099
92.9035
85.0148
85.8625
101.069
106.628
110.908
105.674
92.113
84.6462
82.1991
80.9827
91.8786
91.7144
105.05
90.1592
97.8983
94.1392
108.595
73.4362
80.792
79.34
80.0428
67.6727
95.9646
110.291
96.6487
97.0427
93.9492
98.9489
98.5689
99.2247
77.5315
96.1886
88.0269
105.559
98.1039
100.938
93.725
100.117
96.3459
96.4117
100.647
99.4266
104.567
112.398
116.913
119.99
104.978
112.45
98.9288
94.6472
100.486
99.2932
104.465
103.109
105.38
104.569
103.725
104.191
69.0625
68.1037
67.7176
69.1083
71.4867
80.8588
70.5978
73.7023
74.3361
69.9852
75.3582
74.8065
76.7728
75.3598
69.8309
65.9354
69.5092
72.29
94.7149
90.014
92.4403
95.438
97.2235
79.9034
81.7477
80.3368
85.5663
87.8704
96.6807
97.2043
97.9572
92.7146
86.463
90.6026
89.3464
93.9189
81.6705
102.748
96.012
78.3956
80.3956
96.1093
112.273
107.477
98.4187
110.25
97.8758
90.247
94.9903
100.338
103.033
100.981
101.845
97.3913
90.633
68.2216
77.4184
77.3717
68.2133
66.6046
64.1847
65.8344
65.2573
62.0803
69.5534
62.0717
66.5279
65.0592
64.1848
63.4378
64.0098
63.4589
95.2258
104.533
103.214
98.5692
99.2416
105.429
119.918
112.992
117.65
128.421
110.184
101.487
104.735
130.061
135.658
116.154
135.416
105.687
