# vtk DataFile Version 4.2
vtk output
ASCII
DATASET POLYDATA
POINTS 642 double
-167.186 284.47 28.1788
171.218 286.584 27.1309
-160.556 -282.478 -1.85657
167.657 -287.595 -2.83261
1.09495 -189.975 325.065
0.0308869 201.275 311.829
-0.319855 -190.725 -325.17
-1.41042 187.252 -324.346
289.36 -0.350777 -206.263
296.937 0.841899 199.966
-282.602 -1.72535 -205.707
-295.021 7.50552 195.329
-276.396 178.383 122.746
-185.338 114.45 304.161
-111.489 301.975 189.537
113.528 302.262 190.222
-0.227079 338.083 27.0778
109.555 261.142 -194.816
-103.823 260.486 -191.844
-183.796 112.115 -313.357
-249.032 154.698 -129.601
-295.324 -1.89818 12.6544
186.23 117.02 304.549
282.378 180.996 124.21
-178.739 -109.547 304.215
0.296802 -7.86259 378.136
-253.848 -155.276 -130.775
-252.244 -157.417 114.626
-0.775294 0.58476 -390.352
-185.835 -115.011 -314.426
257.115 158.373 -135.458
189.142 115.394 -316.654
259.952 -161.01 114.332
184.037 -110.219 308.366
102.825 -272.104 178.911
-99.9668 -269.519 178.306
0.970342 -350.487 -2.05442
-101.672 -268.164 -183.494
102.451 -274.069 -180.115
189.14 -115.419 -316.657
251.077 -154.626 -128.06
303.794 -0.122173 11.7082
-228.684 241.442 78.7482
-209.522 252.666 158.579
-150.506 310.034 107.18
-254.315 60.0257 259.396
-246.326 154.284 219.935
-301.304 91.3564 165.734
-58.7995 262.916 264.596
-155.095 219.458 258.232
-99.0106 162.649 320.325
-58.0125 347.101 108.188
-88.9934 325.037 27.8217
59.6864 262.68 264.634
-0.0176589 318.638 200.717
91.342 324.891 27.0167
58.3 346.683 108.321
153.663 311.5 106.816
-41.0316 291.329 -78.241
-128.529 248.263 -86.3133
134.333 258.26 -89.275
43.8942 291.937 -77.1174
-60.0321 239.344 -263.76
-0.768168 269.314 -197.99
63.4692 239.289 -262.892
-190.222 218.491 -166.473
-217.32 210.414 -43.0751
-97.3697 158.467 -334.615
-150.774 205.318 -260.838
-277.022 83.0966 -170.047
-237.082 144.503 -223.997
-250.722 55.5168 -264.682
-262.614 172.771 30.9086
-298.928 -0.982496 -109.354
-288.142 85.8955 -69.9222
-298.852 93.5318 80.6772
-303.403 11.2091 117.287
213.693 254.129 161.106
234.362 244.661 77.6389
101.146 163.827 321.432
158.71 221.05 260.556
299.21 99.0984 164.89
250.544 158.79 221.686
253.891 58.567 260.183
-100.613 57.2552 355.264
-0.0645704 97.1899 350.958
-248.084 -53.2506 257.881
-193.566 0.473376 320.339
1.0949 -104.382 371.865
-97.6891 -62.0524 362.266
-92.688 -156.698 326.666
-288.809 -76.5081 70.0681
-280.645 -77.4395 167.823
-280.462 -87.9971 -173.446
-280.9 -77.4916 -74.5338
-214.301 -228.567 56.0851
-255.384 -169.088 2.52903
-210.793 -228.644 -53.5989
-197.352 -0.463521 -333.311
-252.212 -57.8072 -265.16
-1.67376 102.56 -375.251
-101.797 61.9469 -375.63
-99.1092 -161.577 -335.655
-102.467 -61.6942 -374.328
-0.742978 -103.194 -373.498
156.15 209.057 -263.454
101.869 160.212 -334.989
224.201 209.796 -44.5116
197.335 221.778 -171.814
257.621 60.6816 -267.457
247.142 150.043 -226.772
287.467 89.1807 -175.638
220.405 -232.768 54.5204
192.369 -227.927 152.723
141.093 -289.169 87.9745
253.532 -55.8073 262.686
237.619 -140.57 222.263
286.324 -79.1543 170.034
54.0568 -238.247 261.968
148.734 -201.385 257.836
94.1986 -156.921 327.986
52.2253 -322.684 84.6168
87.795 -332.521 -3.37925
-53.0487 -237.367 261.724
1.17514 -287.846 189.697
-83.496 -330.187 -2.818
-49.4487 -321.089 84.2282
-136.817 -285.487 87.8289
54.0772 -331.461 -92.0406
140.181 -296.509 -89.4422
-134.376 -291.66 -89.4951
-50.7236 -329.968 -91.7489
61.0538 -239.283 -268.62
0.678867 -294.776 -182.266
-63.0864 -240.86 -268.21
191.768 -221.694 -162.014
218.314 -234.965 -53.5132
100.253 -160.467 -335.044
155.999 -208.496 -264.035
286.616 -88.4061 -178.827
248.789 -150.44 -226.916
257.803 -60.8052 -267.313
263.647 -174.59 1.10024
306.09 0.0706874 -111.389
288.249 -76.5666 -69.8635
297.423 -81.9737 69.4059
310.929 4.97055 111.147
100.672 -61.7144 364.53
196.353 -2.64165 325.055
102.814 55.7532 356.958
-187.777 -223.694 152.581
-145.509 -200.285 256.33
-232.829 -139.582 218.046
-153.903 -209.533 -263.393
-192.801 -219.744 -169.16
-242.462 -149.448 -225.135
198.731 0.00421041 -331.327
103.537 -63.3169 -374.117
103.389 63.3647 -374.108
304.921 96.0608 78.3817
296.226 86.8898 -70.3366
268.749 176.47 28.3516
-199.014 266.316 52.1579
-193.486 278.393 94.4452
-160.857 299.524 67.2518
-248.878 218.177 140.403
-224.391 251.077 118.94
-254.737 212.066 102.35
-134.735 312.17 146.315
-182.883 286.008 134.092
-162.756 280.762 175.669
-279.641 32.605 228.431
-282.209 76.7943 212.691
-303.687 49.7948 181.951
-219.272 136.113 265.542
-252.597 107.857 242.737
-222.692 87.5525 285.075
-290.301 136.678 143.995
-277.466 124.083 192.49
-266.741 168.724 168.404
-29.6074 234.155 292.616
-79.3902 216.244 294.762
-50.0405 183.852 317.103
-134.344 264.718 226.788
-108.692 244.256 263.261
-86.0328 285.625 230.167
-143.405 139.612 316.101
-128.799 193.177 292.679
-172.329 168.437 284.6
-230.313 206.039 191.326
-204.439 189.275 242.441
-184.748 239.216 211.618
-119.77 322.726 68.104
-130.214 307.447 27.6782
-86.4899 331.528 148.067
-104.88 332.539 108.949
-46.1546 335.419 27.5642
-73.8556 339.312 68.9317
-29.14 347.108 68.8148
30.0051 234.072 292.639
-0.00195414 266.559 267.321
57.9639 314.947 198.362
30.3981 295.136 235.331
87.5516 285.627 230.45
-30.2424 295.157 235.329
-57.4653 315.105 198.314
133.78 308.308 26.3255
122.709 323.309 67.659
164.818 301.25 66.6912
28.7504 346.771 68.8265
75.0935 338.933 68.7825
46.4516 335.091 27.0119
136.861 312.536 146.859
106.751 332.665 108.852
87.4164 331.268 148.234
-30.4905 340.748 153.368
30.4771 340.695 153.436
-0.202114 351.296 109.281
-112.208 300.11 -7.83994
-148.18 280.393 -8.14187
-25.3089 321.798 -13.8806
-66.5847 315.56 -9.53708
-120.047 258.112 -160.123
-82.4188 269.911 -82.7861
-75.667 273.93 -156.349
149.345 283.012 -13.0242
117.224 299.488 -12.0955
80.735 273.178 -156.509
93.282 267.631 -81.9738
126.62 259.24 -159.659
68.7855 315.262 -10.8189
25.7096 322.067 -14.3462
-31.8336 215.193 -296.415
-0.411982 240.552 -264.597
32.1249 214.952 -295.082
-56.7393 268.744 -196.687
-31.7541 259.836 -230.776
-84.2055 255.153 -228.187
89.3668 256.909 -229.407
32.8632 259.411 -230.611
60.1681 266.941 -198.378
-0.117491 297.306 -77.697
28.0043 279.984 -150.746
-29.0546 281.404 -151.274
-174.272 231.477 -63.3613
-191.963 253.745 5.4664
-149.433 243.146 -181.726
-164.553 236.913 -146.849
-227.139 192.91 -95.0681
-205.419 210.016 -120.913
-223.51 190.038 -146.329
-50.5686 175.146 -333.108
-79.7102 203.062 -302.365
-169.234 161.778 -290.884
-126.782 184.363 -300.31
-142.156 137.148 -327.986
-106.49 225.784 -264.882
-128.503 239.627 -226.84
-282.448 42.1989 -190.685
-270.518 72.1837 -219.361
-272.803 26.2272 -235.073
-245.778 151.018 -177.452
-260.45 114.846 -199.693
-267.408 119.514 -148.179
-220.353 84.6989 -291.732
-247.032 103.317 -246.608
-215.315 130.855 -270.024
-174.919 217.15 -213.785
-198.417 178.117 -245.256
-215.608 186.506 -196.56
-221.569 234.277 26.4089
-237.003 157.61 -50.8211
-233.673 203.519 -4.56651
-249.423 208.216 54.1339
-271.869 178.254 79.1271
-288.619 -1.61155 -159.552
-292.051 43.3231 -138.837
-282.731 43.7329 -34.5307
-295.703 42.4964 -96.8718
-294.028 -5.1446 -67.4217
-287.492 82.9573 -117.313
-277.52 109.87 -98.4388
-308.683 52.1284 146.971
-304.644 12.2925 160.564
-291.366 136.52 104.506
-301.221 93.4154 126.94
-304.729 5.90772 68.09
-304.43 51.7105 101.438
-301.121 47.6067 53.3285
-277.222 115.189 -15.7451
-289.437 92.8975 17.322
-285.464 135.129 53.4081
197.939 281.054 93.5376
204.006 268.998 51.7127
166.024 281.743 177.457
186.122 287.336 134.839
260.713 215.029 102.2
229.17 253.355 119.467
253.91 220.359 142.779
51.3443 183.794 317.009
81.4975 216.18 295.437
175.105 171.458 286.541
131.579 194.555 294.654
144.67 142.143 317.165
111.362 244.461 264.378
137.446 265.397 228.157
298.878 48.5195 184.824
281.742 80.0538 213.012
279.576 28.0608 229.915
272.585 172.686 170.88
280.132 129.861 193.172
295.811 142.18 144.774
222.926 88.6877 285.115
254.119 112.166 242.95
221.767 140.284 266.7
189.065 241.139 214.067
208.62 192.481 244.99
235.639 209.123 194.185
-53.5154 132.481 338.049
-0.0108645 151.881 331.737
-145.499 89.2311 334.335
-103.107 111.272 340.794
-0.138893 42.5544 368.35
-53.1785 75.5917 355.646
-50.9781 24.0128 370.605
-274.67 -23.0514 227.627
-253.89 3.60325 261.353
-188.784 -55.887 316.605
-223.225 -27.5119 293.032
-215.912 -81.7263 283.421
-225.323 31.9094 292.961
-192.943 58.8414 316.056
1.07084 -150.458 352.023
-45.471 -132.519 353.269
-43.5742 -175.299 328.453
-47.7798 -35.3925 374.736
-46.3429 -83.9068 369.661
0.865951 -57.8358 382.337
-137.549 -134.863 318.876
-96.7565 -110.983 348.803
-141.048 -87.7103 337.991
-149.028 29.2192 343.413
-147.797 -31.4541 346.495
-100.472 -3.21779 365.795
-295.544 -32.4442 143.196
-290.382 -35.2404 183.851
-296.205 -35.1395 44.5278
-301.457 -34.7371 91.8191
-266.853 -117.007 144.37
-287.312 -77.3328 118.894
-273.598 -119.083 92.6256
-283.767 -46.634 -191.175
-291.491 -45.6994 -141.582
-270.342 -121.429 -105.013
-284.904 -84.053 -128.415
-269.775 -124.087 -154.521
-297.086 -37.5582 -96.132
-293.862 -35.3842 -35.4974
-189.182 -255.68 27.4583
-214.743 -230.251 1.26863
-187.457 -257.763 -27.4476
-255.918 -166.051 58.5153
-237.228 -199.209 30.1964
-234.186 -195.275 83.7421
-232.84 -189.368 -93.019
-236.541 -199.457 -26.1386
-253.752 -162.417 -61.2636
-285.207 -80.5822 5.78414
-270.896 -127.296 -32.2112
-272.684 -126.257 35.318
-255.976 -0.948614 -270.302
-273.635 -28.8957 -234.989
-193.285 56.9893 -327.271
-226.409 28.252 -301.701
-222.267 -87.1504 -292.501
-227.377 -29.7261 -302.175
-194.047 -57.998 -327.252
-1.62322 147.993 -353.103
-52.3758 132.483 -360.69
-54.1175 32.3857 -389.095
-53.4874 83.1787 -380.354
-1.23463 53.6874 -387.991
-101.375 112.163 -359.496
-145.674 89.2674 -349.366
-51.6731 -178.164 -333.744
-53.2233 -134.389 -359.839
-0.510222 -150.236 -352.661
-146.773 -90.5887 -349.285
-102.577 -114.062 -359.107
-144.078 -140.176 -329.154
-0.719146 -52.71 -386.849
-53.7899 -83.1 -378.48
-54.1637 -31.1816 -388.576
[...]
POINT_DATA 642
SCALARS Mean_Curvature double 1
LOOKUP_TABLE default
0.00772234
0.00771978
0.00637074
0.00717545
0.0107879
0.00533221
0.00489584
0.00543311
0.00528239
0.0131688
0.00739131
0.00892366
0.0121144
0.00637216
0.00564608
0.00563531
0.00530195
0.00810765
0.00833256
0.00667772
0.00310538
0.00112685
0.0059302
0.0111953
0.00650793
0.00552079
0.00422732
0.00432903
0.0028521
0.00693841
0.00252179
0.00727906
0.00498957
0.00684764
0.00480765
0.0046286
0.0118548
-0.000996807
0.00273712
0.00725539
-0.00194654
0.00214643
0.00503926
0.00694551
0.00848967
0.00722832
0.00546304
0.0132072
0.00678616
0.00578625
0.0061078
0.0112452
0.00744158
0.00608736
0.00488639
0.00667692
0.0106483
0.00897395
0.00306891
-0.00608911
0.00594631
0.00243488
0.00753587
0.00184867
0.00542095
0.00780162
0.0028221
0.00706416
0.00687191
0.00313241
0.00915721
0.00638911
0.00280979
0.00928424
0.0108365
0.00439084
0.000256407
0.00668088
0.00594977
0.00682376
0.00626242
0.00844931
0.00650999
0.00457527
0.00523816
0.00177024
0.00665978
0.0066053
0.00932311
0.00680696
0.00645202
0.00298154
0.00577339
0.00672173
-0.0038966
0.00719763
0.0048887
0.00400513
0.0082429
0.005942
0.00562084
0.00724031
0.00742089
0.00609414
0.00418891
0.00671786
0.00805915
0.000418498
0.00759561
0.00744408
0.00931342
0.00692911
0.00534099
0.00432629
0.00531538
0.00713874
0.00682107
0.00485118
0.00482777
0.00640534
0.00565833
0.00357252
0.00834093
0.00529203
0.00680256
0.00893073
0.00328301
0.00553536
0.0076163
0.00734892
0.0066017
0.00792266
0.0088806
0.0057615
0.00857542
-0.000747687
0.00516832
0.00628936
0.00686638
0.00763804
0.0115012
0.0072278
0.00595528
0.00958161
-0.00153182
0.00539376
0.00651668
0.00639342
0.00715491
0.0054665
0.00400546
0.00679799
0.00723284
0.00678301
0.00283316
0.0101963
0.00471751
0.00725834
0.00707269
0.00423849
0.0102233
0.00309944
0.0064859
0.0061058
0.00643486
0.0111262
0.0106529
0.00687546
0.00907571
0.0112096
0.00530315
0.00804981
0.00558239
0.0138393
0.00598375
0.00580572
0.00686711
0.00978924
0.0057242
0.00528328
0.00711036
0.0056121
0.00385829
0.00609644
0.00609278
0.00662859
0.00606781
0.00563122
0.00598773
0.00489177
0.00590426
0.00554617
0.00682937
0.00738587
0.00839849
0.00939638
0.00728552
0.00668909
0.00691147
0.00686515
0.00546215
0.00598215
0.00713472
0.00616516
0.00722579
0.0063874
0.00705453
0.00677072
0.00653244
0.00642199
0.00600765
0.00661737
0.00821395
0.00908663
0.00779629
0.00775762
0.00778377
0.00913099
0.00453006
0.00422793
0.00430156
0.00373221
0.00519424
-0.00702114
0.00756027
0.00518612
0.0053289
0.00641608
-0.0109856
0.00399867
0.0029899
0.0046571
0.00494531
0.00453641
0.00341737
0.00555695
0.00804888
0.0102522
0.0124349
0.00751801
0.0030414
0.00306523
0.00210093
0.0043762
-0.0039297
0.00321148
0.00924133
0.00536947
0.0133498
0.00477201
0.00697773
0.00668929
0.00704614
0.0063363
0.00674446
0.00694149
0.0070335
0.00904497
0.00513031
0.00968259
0.00900372
0.00545994
0.0073107
0.00497513
0.0063789
0.0083292
0.00661234
0.00838022
0.00811166
0.00766039
0.00622154
-0.0122671
0.00733618
0.00601292
0.0058757
-0.000827315
0.00580714
-0.00931059
0.0071707
0.00126928
0.00874305
0.00630772
0.0116901
0.0101733
0.00652527
0.00374671
0.00740333
0.00277086
0.00351606
0.00230798
0.00496172
0.0059354
0.00705189
0.00674403
0.00552319
0.00979382
0.00708321
0.00971582
0.0102
0.00315885
0.00533865
0.00673427
0.00626442
0.0064517
0.00587162
0.00603891
0.00825601
0.00535557
0.00509439
0.00690154
0.00672875
0.0122417
0.00515852
0.00571175
0.00667583
0.00596582
0.00662892
0.00583068
0.00316597
0.00176848
0.00676201
0.00669611
0.00393137
0.00165749
0.00582661
0.00675543
0.00469702
0.00647403
0.00673578
0.00609624
0.0058353
0.00703839
0.00938659
0.00572039
0.00568193
0.00414497
0.00540843
0.0120895
0.00697279
0.00668997
0.00676063
0.00495937
0.00698629
0.00779478
0.00128723
0.00840962
0.00230103
0.00850298
0.0023418
0.00466368
0.0038892
0.00493252
0.00501872
0.00276345
0.00666303
0.00649328
0.0110152
0.00473417
0.00373513
0.00514163
0.00484734
0.00585555
0.00399645
0.00434483
0.000992207
0.0052318
0.00305422
0.00146423
0.00352717
0.00280441
0.00885628
0.0086964
0.00652616
0.00541357
0.00622579
0.0061217
0.00559088
0.00520493
0.00714972
0.00625508
0.00730319
0.00547331
0.00731291
0.00704385
0.00642768
0.00659136
0.00440949
0.00650802
0.00725295
0.00724307
0.00479305
0.00590433
0.00629267
0.00633144
0.00759095
0.00730169
0.00766967
0.00395029
0.0100229
0.00759607
0.00731994
0.00690821
0.00668
0.00312216
-0.010029
0.00681537
0.00439455
0.0154234
0.00396586
0.00942591
0.00901668
0.0110695
0.0063709
0.00667211
0.00776328
0.00707947
0.00516562
0.0106381
0.00824226
0.0101444
0.0101634
0.00757885
0.00499363
0.00551582
0.00432167
0.00418371
0.00491918
0.00414962
0.00544738
0.00530278
0.00463888
0.00808098
0.00920456
0.00918355
0.00721312
0.00786337
0.00710059
0.0026952
0.00617156
0.0039939
0.00770465
0.00544471
0.00652344
0.0045576
0.00598806
0.00442133
0.00671975
0.00676798
0.00678705
0.00445646
0.00672283
0.00462719
0.00412493
0.0072207
0.0050086
0.00436719
0.00973695
0.00578686
0.00787127
0.00657154
0.0072945
0.00462161
0.00468283
0.00404356
0.0052781
0.00479836
0.00739292
0.00381772
0.00392731
0.00799581
0.00592913
0.0100221
0.0052854
0.00445785
0.0053666
0.00452561
0.00462306
0.00614373
0.00564588
0.00518971
0.00611549
0.0048445
0.00586415
0.00756525
0.00684973
0.00450717
0.00472978
0.00651776
0.00723586
0.00543234
0.00467739
0.00667249
0.00631153
0.00582369
0.00552674
0.00541525
-0.00278216
0.00159864
0.0102982
-0.00398574
0.00503961
0.00716462
0.00766394
0.00741208
0.00640988
0.00551027
-0.000104311
0.00520964
0.00416377
0.00452146
-0.0016633
0.00663632
0.00642869
0.00669653
0.00690134
0.00741991
0.00702755
0.00918019
0.00698907
0.0126674
0.00877444
0.00977029
0.0138977
0.00477568
0.00700276
0.00721577
0.00642516
0.00999487
0.00759871
0.0117187
0.00589488
0.00484751
0.00625442
0.00585765
0.00334186
-0.000577188
0.00455462
0.00287617
0.0111494
-0.00114634
0.00555759
-0.00161029
0.00499939
0.00388116
0.00712987
0.00334888
0.00504071
0.00363796
0.00427346
0.00518567
0.000714571
0.00254712
0.00644557
0.00701523
0.00567306
0.00634611
0.00338629
0.00698896
0.0045859
0.00595932
0.00725622
0.00772161
0.00263607
0.00423633
0.00115294
0.00657629
0.00502223
0.00819415
0.00637566
0.00924682
0.00624546
0.00429791
0.00497599
0.00464129
0.00389938
0.00638075
0.00673846
0.00707987
0.00678981
0.0044405
0.00858047
0.00455111
0.00834293
0.00639937
0.0065909
0.00508116
0.00696136
0.00527026
0.0076594
0.00935216
0.00757397
0.00697757
0.00648652
0.00524061
0.0035322
0.00146654
0.00375045
-0.0017598
0.010314
0.0065744
0.00811727
0.00920451
0.00784428
0.0120193
0.0107133
0.00772933
0.00414802
0.00788354
0.0052876
0.00530416
0.00788287
0.0062169
0.00631831
0.00454103
0.00721441
0.00787788
0.00441168
0.00784014
0.00789831
0.00492721
0.00638212
0.00575472
0.00491088
0.00578911
0.00034815
0.00327375
0.00670758
0.00719268
0.00716653
0.0031397
0.0053233
0.00540162
0.00788799
-0.00735234
0.00605244
0.00622946
0.00661622
0.0102748
-0.0133823
0.00499292
0.00228431
0.00498467
SCALARS CoVolArea double 1
LOOKUP_TABLE default
1516.3
1563.08
1683.16
1669.48
1785.26
2131.05
2097.3
2124.81
1743.39
1595.88
1598.16
1551.3
1971.71
2628.14
2635.93
2687.2
2176.96
1830.29
1789.76
2648.61
2726.56
3019.93
2752.8
2003.42
2528.99
2757.62
2319.2
2418.76
3078.26
2694.26
2675.96
2642.53
2484.7
2542.16
2543.22
2532.67
1949.8
2890.76
2822.12
2644.2
2886.96
3044.24
1998.36
2571.52
2023.32
2391.88
2767.06
1929.9
2512.86
2812.73
2613.64
2257.63
1910.25
2571.88
2813.7
2024.76
2306.86
2074.84
3302.51
3850.7
3262.63
3649.25
2295.52
2472.54
2393.01
1959.43
2574.63
2487.68
2504.8
2091.12
2268.23
2337.24
3082.24
1977.34
2510.82
2379.81
2058.24
2621.25
2025.11
2604.71
2799.35
2163.29
2702.25
2602.28
2891.43
3165.27
2340.81
2743.81
2399.11
2819.85
2486.04
2560.75
2047.82
1888.96
3098.06
2082.63
2490.69
2512.1
2818.39
2385.09
2769.7
2901.61
2508.95
2959.85
2861.25
2570.54
2534.52
3071.95
1950.58
2440.41
2353.32
1971.76
2178.32
2642.18
2308.69
2286.96
2428.13
2150.28
2386.4
2563.92
2555.91
2587.16
2069.11
2354.09
2574.58
2009.93
2566.67
2264.33
2338.73
2102.67
2247.27
2295.28
2472.22
2957.37
2349.19
2991.44
2198.52
2565.34
2460.23
1732.64
2163.48
2456.52
2357.01
2103.65
3273.34
2521.31
2228.36
2839.28
2735.61
2924.05
2586.94
2470.67
2340.48
2477.48
2440.68
2258.58
3006.36
2983.1
2982.17
2361.39
2686.87
3067.75
1947.11
2004.89
1932.6
2293.07
1951.35
1836.26
2233
2117.16
2690.5
2194.26
2289.7
1772.37
2714.25
2460.05
2404.98
1993.07
2397.66
2515
2459.37
2600.5
2646.79
2766.46
2560.8
2467.53
2486.81
2589.54
2770.02
3062.71
3112.44
3131.03
2011.83
1802.41
2520.71
2054.14
1934.18
1980.47
2195.5
2495.84
2548.08
2774.35
2557.05
2526.12
2528.57
2730.83
1863.7
2063.83
1953.58
2234.91
2057.83
2009.74
2295.15
2112.37
2573.31
2906.17
2928.93
2585.08
2880.9
2781.57
2616.37
2717.93
2565.52
3795.83
2705.08
2678.74
2684.05
3033.1
3735.1
2437.48
2867.92
2669.5
2478.62
2523.14
2593.73
2060.7
2194.78
1956.41
1956.31
2254.43
2213.04
3396.87
3335.48
3103.43
3765.38
2613.9
1845.92
2658.98
2406.04
2394.64
2038.28
2455.25
2426.2
2649.44
2440.28
2477.16
2264.46
2170.44
2056.14
2068.14
2014.08
2114.12
2011.72
2010.87
2448.08
2213.73
2571.7
2445.16
2717.03
2404.38
2140.49
4150.41
2568.89
2058.03
2032.29
2249.39
2141.83
3706.2
2251.41
2492.62
1886.05
2865.87
1708.99
1733.39
2069.64
1882.54
2178.79
2036.61
3043.95
3434.29
3146.58
2596.65
2053.86
1940.86
2734.25
2211.71
1924.3
2062.12
2351.49
2688.98
2632.87
2740.09
2559.81
2501.61
2598.87
2799.43
2174.76
2468.81
2305.79
2456.97
2335.12
1920.73
2589.17
2551.2
2730.15
3124.24
3066.28
3026.03
2942.66
2943.83
2762.82
2655.63
2892.81
2911.23
2897.07
2167.14
2440.53
2665.09
2456.73
2346.12
2470.13
2723.34
2296.99
2527.6
2348.19
2793.77
2547.56
2424.07
2380.93
2565.64
2684.82
3141.75
3072.66
3155.9
2153.47
1909.71
2594.45
2201.11
2188.02
2271.26
2498.62
2011.07
2066.69
2594.3
2088.61
1842.03
2070.58
2881.9
2087.34
2117.98
2080.02
2373.62
2091.35
2177.65
2718.03
2364.91
2693.43
3459.72
3268.38
2936.35
2382.87
2028.25
2798.64
2517.79
2498.95
2532.88
2837.53
2647.16
2617.31
3008.79
2682.5
2802.28
2581.28
2821.42
2520.05
2709.93
2681.13
2874.14
2642.36
2503.81
2871.82
2794.02
3052.34
3215.46
3275.55
3233.06
2492.18
2631.76
2142.16
2270.84
2461.77
2435.68
2705.07
2901.49
4117.45
1991.95
2755.62
2419.91
2656.87
1835.04
2185.39
2057.48
2071.97
2658.44
2290.89
2460.57
1936.46
1943.47
2024.25
2454.41
2388.62
2826.9
2105.37
2265.39
2166
2619.16
2314.14
2259.99
2307.04
2318.91
2612.65
2084.65
2077.69
1868.77
2493.47
2208.13
2322.09
2292.12
2166.61
2532.42
2218.42
2473.64
2327.09
2618.53
2418.18
2407.34
2460.9
2436.59
2558.48
2876.82
2803.12
2916.94
2265.73
2046.71
2625.77
2385.97
1920.91
2170.2
2179.81
2227.15
2313.25
2619.4
2383.61
2386.23
2374.04
2612.42
2013.24
2212.86
2131.98
2159.61
2120.35
1865.94
2283.75
2352.19
2598.55
2932.04
2924.35
2803.68
2119.95
2018.95
2261.85
2125.54
2415.75
2114.16
2473.86
2034.34
2118.26
2564.6
2143.91
2521.35
2086.47
2226.74
2372.97
2675.77
2385.15
2859.44
3047
2571.87
2397.1
2948.99
2897.9
2603.22
2700.38
2683.86
2182.28
2042.31
3040.73
2602.47
2656.04
2691.39
2875.13
2549.54
2449.08
2695.21
2474.62
2490.02
2304.3
2620.26
2012.39
2000.92
2182.74
2113.65
1721.32
2067.27
2474.08
2280.52
2668.63
2811.08
2669.55
2545.09
2100.81
2777.88
2114.59
2128.1
2446.57
2327.37
2066.61
2980.2
2188.93
2572
2305.38
3159.64
2183.97
2049.08
2467.54
2302.37
2156.54
2200.76
2699.91
3281.34
3413.14
2832.32
2524.24
2718.92
2637.71
2554.57
2829.17
2456.67
2896.37
2569.55
2418.28
2632.13
2986.72
2974.58
2997.2
2704.56
2880.86
3002.9
3120.29
3116.81
2177.45
2585.63
2288.09
2253.34
2531.52
2415.38
2505.14
2342.51
2326.08
2556.48
2103.28
2371.01
2047.02
2220.16
2489.32
2806.74
2710.32
2719.75
2399.27
2484.94
2190.81
2452.39
2690.57
2446.83
2407.28
2798.55
2631.86
2765.17
2054.72
2636.02
2274.09
1898.47
1984.38
2524.15
2296.44
2708.89
2622.77
2837.17
2675.71
2671.73
2836.59
2773.21
3100.72
2836.88
2643.31
2806.76
2792.62
2798.46
2632.54
2806.71
3089.42
3359.88
3423.75
3361.67
2295.03
2906.69
2157.47
2006.37
2031.05
2218.92
3040.87
2025.71
2387.92
3566.73
2220.92
2098.47
2071.48
2525.21
4080.34
3185.39
3645.55
2710.05
SCALARS SignedDistance double 1
LOOKUP_TABLE default
210.065
206.388
193.592
185.111
150.804
152.304
151.167
157.289
189.513
182.821
196.838
189.017
196.394
145.497
149.747
147.704
203.087
206.35
209.303
150.116
219.46
225.601
144.185
188.459
156.493
147.369
217.339
202.957
132.081
144.512
210.954
140.019
194.311
150.311
176.307
180.161
170.217
188.499
180.156
140.01
207.286
216.949
200.774
169.557
183.187
156.546
160.913
193.865
142.473
146.992
148.704
178.209
205.993
142.536
144.847
203.897
177.563
179.447
238.457
235.295
235.764
235.139
183.416
212.087
183.339
214.524
238.562
145.573
175.428
202.547
191.348
170.396
219.255
221.847
240.811
212.862
204.905
162.505
194.874
149.552
142.634
185.218
153.896
156.401
149.956
155.489
168.474
147.626
135.833
140.283
150.33
216.375
199.163
202.855
220.918
199.627
209.076
201.305
142.072
168.448
135.212
128.587
140.113
129.534
134.812
168.617
144.29
234.259
206.259
160.559
181.249
197.801
191.222
183.303
182.072
161.216
178.409
190.212
167.167
168.405
148.582
179.528
176.371
169.516
174.615
182.062
181.864
187.469
169.412
179.064
187.444
173.76
171.001
172.074
172.426
197.532
192.223
141.873
167.445
198.689
183.58
160.687
201.023
214.871
216.548
204.982
200.582
138.294
142.439
149.775
189.67
172.585
184.989
167.721
207.633
187.357
138.978
129.667
129.621
204.802
232.993
213.557
205.658
191.566
196.967
184.461
188.795
197.82
166.614
177.796
157.506
171.884
170.087
190.886
151.296
158.003
148.789
193.902
173.947
175.224
146.152
146.898
152.689
146.995
144.523
143.428
145.272
145.792
146.412
162.238
151.959
153.352
193.756
207.846
161.821
179.214
204.905
191.409
190.934
146.135
142.66
145.071
141.314
142.541
141.329
145.079
205.28
191.225
193.172
189.765
190.008
203.177
162.595
177.181
160.752
157.16
157.11
177.596
217.037
218.79
216.41
216.169
218.323
235.257
224.511
217.337
215.726
219.415
231.154
212.172
213.663
215.223
169.456
184.868
169.407
211.467
202.097
198.399
199.058
201.683
209.759
238.287
227.675
231.716
235.586
218.308
210.895
220.935
239.507
229.316
219.372
152.137
161.542
160.196
158.246
145.472
176.64
195.038
197.729
191.816
186.416
205.719
198.056
211.344
158.56
179.582
168.627
197.746
181.951
202.212
216.166
232.885
226.226
211.487
207.803
203.029
210.585
231.599
225.903
232.758
221.562
229.27
204.301
202.498
205.08
202.769
217.726
208.807
219.115
235.255
227.744
218.177
186.464
200.639
153.207
171.378
190.596
181.345
176.177
152.605
146.495
142.159
143.363
143.469
142.809
144.05
186.013
169.906
168.637
167.978
167.56
186.164
148.864
156.104
147.426
147.852
145.454
155.1
153.976
154.723
144.247
149.946
152.893
154.338
151.615
177.672
163.658
151.233
155.601
161.996
153.653
145.602
141.645
143.027
150.636
144.314
140.071
139.837
152.333
143.276
146.043
145.18
143.322
143.511
200.201
195.19
221.901
213.861
200.888
207.21
209.853
198.046
208.578
221.852
213.836
209.379
225.144
226.239
196.797
200.896
197.065
207.774
204.494
200.806
211.548
205.057
213.459
216.424
214.367
213.986
171.006
187.264
144.474
154.878
153.774
154.807
142.815
144.809
139.994
130.743
131.431
130.635
134.885
136.669
146.648
137.339
140.956
133.419
131.863
139.856
132.23
132.649
130.217
133.123
127.134
132.815
162.804
152.543
191.191
174.154
138.639
152.927
151.265
213.185
228.987
210.226
218.051
229.341
212.297
205.317
179.432
182.968
191.617
156.732
167.602
147.166
204.228
191.468
199.384
191.798
195.973
171.795
187.969
186.003
184.299
188.434
188.717
194.601
179.75
183.303
179.142
170.246
179.375
187.424
164.091
170.472
154.403
191.192
184.333
187.241
159.726
158.47
149.635
173.866
167.285
172.476
148.45
158.044
159.29
182.592
172.673
177.761
181.554
180.951
178.861
180.246
172.303
178.317
175.113
161.075
166.29
176.696
172.818
175.717
171.206
175.107
188.59
187.636
192.272
177.227
182.248
175.511
184.541
184.152
181.635
179.135
179.996
178.96
178.197
182.804
170.572
173.514
176.776
173.201
171.33
191.474
185.547
176.601
180.037
185.029
178.557
172.989
161.413
172.288
161.469
173.879
179.44
185.456
187.298
181.827
178.634
168.863
170.004
168.11
186.41
188.008
188.386
183.942
197.61
191.487
203.745
146.316
155.226
151.106
152.04
138.507
169.449
186.775
193.005
185.514
179.613
199.742
194.391
202.518
147.187
168.198
156.851
189.312
171.54
195.171
191.929
201.905
196.279
195.576
200.452
196.128
201.625
217.142
219.389
225.562
206.643
212.252
194.806
190.296
201.151
196.719
209.982
205.445
209.836
208.026
209.74
207.382
141.911
140.924
141.176
138.891
144.069
156.374
145.171
149.272
148.864
143.555
153.845
150.946
154.159
150.567
144.276
136.886
142.509
141.766
192.69
184.602
189.31
194.991
195.666
160.108
163.763
161.156
170.908
178.575
186.793
196.234
193.857
177.159
170.07
183.678
177.797
190.09
154.29
184.594
168.119
151.157
153.316
195.344
212.004
204.127
194.803
200.171
189.599
162.302
174.585
196.006
203.343
192.422
198.875
175.084
162.487
136.534
148.035
148.033
136.533
136.905
130.645
132.699
132.923
130.515
141.115
130.521
133.439
133.383
129.918
131.504
130.192
131.505
191.266
210.907
203.223
195.093
197.898
200.96
219.363
210.723
218.555
225.366
210.537
200.929
205.54
221.978
229.771
219.129
228.35
210.191
