# vtk DataFile Version 4.2
vtk output
ASCII
DATASET POLYDATA
POINTS 642 double
-199.942 330.655 13.9857
202.521 332.428 13.4185
-194.948 -327.398 -1.08671
199.518 -331.421 -1.58359
0.557558 -216.49 359.028
0.029635 221.373 351.183
-0.202034 -216.915 -359.151
-0.763569 214.969 -358.472
339.673 -0.175094 -221.858
342.193 0.0471741 218.684
-335.406 -0.899306 -221.184
-339.774 3.19955 215.729
-321.92 202.362 130.029
-207.636 128.266 338.117
-126.719 336.931 209.867
127.849 337.29 210.3
-0.163099 392.523 13.5651
124.677 313.991 -209.056
-121.155 311.943 -206.962
-207.879 127.708 -344.344
-300.704 186.366 -133.647
-360.595 -0.675983 6.71389
208.288 129.663 338.643
326.019 204.436 131.365
-203.98 -125.627 337.54
0.207563 -3.92495 420.858
-305.007 -186.797 -135.08
-301.888 -186.564 125.353
-0.42522 0.300632 -429.258
-209.109 -129.274 -345.232
307.222 189.62 -137.165
211.145 129.752 -346.951
306.903 -189.475 125.483
207.355 -126.394 340.749
120.087 -315.71 201.073
-118.445 -313.773 200.476
0.441856 -399.932 -0.946587
-120.281 -312.656 -202.972
119.841 -316.475 -201.951
211.144 -129.764 -346.955
302.248 -185.643 -133.607
366.125 0.337985 6.12377
-269.865 278.123 74.8648
-238.163 282.861 175.513
-174.67 352.57 111.704
-287.809 66.5965 288.34
-280.083 173.925 243.987
-346.438 104.086 179.893
-66.3478 291.498 294.419
-175.031 244.731 287.234
-108.987 181.04 358.346
-66.5578 392.782 113.571
-105.62 377.295 13.6552
66.8091 291.386 294.46
-0.00680367 355.381 221.822
106.765 377.296 13.334
66.6689 392.523 113.651
176.356 353.612 111.807
-55.7725 349.08 -94.9285
-157.014 308.573 -98.837
161.329 316.15 -101.334
57.4496 349.232 -94.3528
-66.4656 277.636 -291.956
-0.267145 324.762 -216.07
68.256 277.698 -291.617
-225.912 262.751 -177.202
-257.876 256.35 -55.6909
-108.921 180.181 -367.913
-172.426 236.94 -287.708
-330.498 99.234 -182.165
-275.685 169.01 -244.933
-286.687 64.5099 -291.492
-316.102 201.156 16.7542
-359.018 -0.595053 -114.252
-349.29 99.8848 -70.5143
-357.863 104.275 76.9613
-362.484 6.2737 119.419
241.182 284.52 177.434
273.614 280.651 74.5052
110.246 181.927 359.485
177.24 246.041 289.025
346.148 108.051 180.259
283.089 176.704 245.618
287.67 65.8738 288.773
-110.582 66.0617 396.582
-0.025153 110.814 394.672
-283.888 -63.1598 286.736
-217.93 0.169926 355.873
0.55824 -116.017 410.058
-109.521 -68.7742 401.352
-105.939 -178.311 361.933
-348.792 -94.1316 70.7789
-332.785 -96.2872 180.367
-334.046 -102.156 -183.736
-342.202 -94.9562 -74.0558
-257.406 -266.535 62.8654
-309.536 -197.265 1.44521
-255.077 -266.464 -61.3994
-221.655 -0.214316 -365.298
-287.56 -65.5911 -291.897
-0.869395 115.342 -412.483
-112.532 69.2268 -411.188
-109.885 -181.916 -368.796
-112.811 -69.0329 -410.346
-0.415226 -115.483 -411.224
175.658 239.608 -289.992
111.276 181.267 -368.398
261.071 256.187 -56.751
231.179 266.589 -180.601
291.089 67.3321 -293.943
281.845 172.594 -247.635
339.423 103.303 -185.628
261.627 -269.774 62.3539
226.006 -265.705 170.7
166.124 -334.719 101.112
287.882 -64.7433 290.349
274.939 -166.396 244.056
336.176 -97.4074 182.361
63.2828 -276.273 290.523
170.862 -234.129 285.337
106.824 -178.599 362.94
62.1824 -372.097 100.263
104.95 -380.895 -1.72464
-62.7708 -275.757 290.223
0.583886 -333.509 212.78
-102.64 -379.117 -1.41969
-60.7282 -370.897 99.9137
-163.455 -331.896 100.73
63.5786 -378.677 -104.681
166.407 -339.813 -102.181
-162.845 -336.209 -101.829
-61.8797 -377.558 -104.42
67.1871 -278.055 -294.723
0.351704 -337.071 -209.335
-68.1145 -279.18 -294.864
226.458 -261.846 -175.239
260.553 -271.072 -61.8542
110.53 -181.36 -368.449
175.535 -239.337 -290.305
339.633 -103.369 -186.936
282.384 -172.684 -247.332
291.122 -67.352 -293.918
315.733 -201.233 0.565894
364.223 0.0851541 -115.824
346.792 -94.3113 -71.6381
354.89 -97.3055 70.8689
367.125 2.50123 116.496
111.213 -68.6835 403.213
220.01 -1.37424 359.403
111.891 65.3572 397.965
-222.958 -262.694 170.167
-168.902 -233.26 284.052
-271.267 -165.297 240.851
-174.389 -239.738 -289.809
-228.516 -264.036 -180.475
-278.916 -171.837 -246.011
222.113 0.0021991 -363.917
113.32 -69.8636 -410.129
113.247 69.8951 -410.149
362.072 106.492 75.6577
354.739 100.965 -71.5199
320.732 203.942 15.1131
-236.584 307.951 43.9026
-226.423 318.891 94.5058
-189.726 344.637 62.5483
-284.964 245.697 153.377
-260.047 285.896 125.567
-298.774 243.144 103.252
-153.241 349.357 160.391
-209.666 322.339 145.349
-185.132 313.878 195.03
-318.375 34.5112 254.41
-321.021 86.7452 236.395
-347.732 53.8452 199.708
-247.549 153.062 294.832
-286.623 121.541 269.295
-250.74 98.0961 316.644
-336.034 154.736 155.436
-315.982 140.575 213.26
-305.036 190.139 186.838
-33.3475 258.843 327.131
-88.5933 239.548 329.767
-54.8863 203.143 356.94
-152.414 294.944 251.72
-122.453 271.233 293.278
-97.585 317.719 255.096
-159.792 156.082 352.164
-143.95 215.205 326.417
-193.584 188.436 316.471
-262.315 231.374 212.733
-231.365 212.111 269.268
-209.759 267.624 235.009
-141.012 370.61 63.2579
-154.974 357.263 13.6195
-98.1378 370.385 162.202
-121.693 376.823 114.104
-54.1346 389.315 13.6571
-86.8506 389.254 63.9424
-33.408 398.424 63.9097
33.564 258.792 327.147
0.0020505 295.478 297.848
65.068 351.114 219.156
33.9729 327.858 260.941
98.3817 317.798 255.313
-33.8932 327.869 260.939
-64.8147 351.189 219.14
156.955 358.153 13.0263
142.522 371.174 63.0968
192.029 346.123 62.3249
33.1777 398.101 63.9425
87.3971 388.999 63.9182
54.1995 389.005 13.4531
154.456 349.829 160.871
122.57 376.927 114.173
98.6453 370.327 162.33
-34.1749 380.342 168.237
34.1844 380.321 168.265
-0.0912136 397.902 114.989
-134.654 352.063 -31.2385
-178.88 328.975 -30.9772
-30.8976 377.865 -34.5558
-81.5687 369.736 -32.1135
-142.812 313.889 -165.364
-106.087 328.021 -97.2579
-90.6284 331.574 -164.586
180.127 331.015 -34.0987
137.304 352.248 -33.958
93.4232 330.763 -164.549
111.685 328.371 -97.5408
146.592 315.19 -165.261
82.7556 369.552 -32.9599
30.9861 377.996 -34.7877
-34.4034 248.649 -328.126
-0.182267 279.801 -293.811
34.5879 248.344 -327.1
-63.5451 323.194 -214.305
-34.1964 306.384 -254.369
-95.6161 299.668 -250.64
98.3781 301.407 -251.659
34.8535 306.035 -254.077
65.3799 322.511 -215.128
-0.141924 356.494 -95.7829
32.1981 337.953 -164.076
-32.7673 339.518 -164.465
-207.241 283.7 -77.1088
-229.777 298.204 -13.152
-176.122 291.592 -194.443
-194.963 289.848 -150.762
-277.609 228.294 -99.8031
-243.995 257.653 -126.653
-268.054 227.957 -155.502
-55.5239 200.085 -367.262
-88.8271 233.11 -333.842
-192.402 185.432 -320.233
-143.264 211.197 -330.93
-160.155 155.812 -360.229
-120.815 260.738 -292.843
-148.441 280.41 -249.133
-336.241 50.0551 -204.274
-316.424 84.6369 -238.758
-315.903 31.3718 -256.97
-292.758 180.239 -189.914
-307.993 135.91 -215.777
-319.468 144.33 -157.55
-250.41 96.9962 -321.053
-284.061 119.28 -270.849
-245.82 150.575 -297.391
-204.197 255.61 -234.112
-227.887 206.098 -269.711
-254.139 220.758 -213.316
-265.141 273.503 13.8446
-295.184 188.284 -58.2234
-285.706 236.139 -18.9891
-297.333 241.105 45.0938
-322.807 204.734 73.9206
-345.776 -1.11188 -170.321
-348.334 50.4074 -149.275
-348.285 49.0807 -35.1235
-357.275 49.6375 -96.8203
-359.869 -2.21251 -64.188
-343.76 99.4055 -125.218
-331.823 138.418 -102.157
-364.247 55.3731 152.69
-359.293 5.73692 170.054
-345.297 154.142 104.923
-356.918 105.318 129.607
-366.293 3.61988 64.946
-364.523 55.2996 99.8992
-363.109 52.796 46.2865
-334.421 143.425 -24.8774
-351.941 104.473 9.42041
-342.547 155.363 45.3619
229.102 320.913 94.3543
239.799 310.194 43.6318
187.164 314.931 196.229
211.459 323.28 146.086
302.717 245.297 103.797
262.925 287.464 126.41
288.535 247.646 155.317
55.5955 203.12 356.926
89.7276 239.62 330.306
195.411 190.372 318.143
145.597 216.255 327.996
160.62 157.577 353.163
123.928 271.568 294.125
154.199 295.654 252.739
345.932 53.515 201.494
321.276 88.4494 236.473
318.508 32.3006 255.145
309.114 192.901 188.729
318.609 143.739 214.207
340.094 157.944 156.662
250.96 98.6922 316.813
287.86 123.87 269.779
249.32 155.477 296.026
212.502 269.277 236.802
234.148 214.344 271.337
265.932 233.796 214.804
-56.8921 148.143 380.332
0.00703056 168.159 374.335
-161.557 99.683 372.334
-112.247 124.817 381.035
-0.0493064 52.6783 411.633
-56.9697 87.9223 399.024
-55.9437 30.9897 413.348
-315.092 -29.9069 253.046
-289.181 1.74756 290.983
-213.921 -63.9874 351.404
-253.699 -32.4314 325.32
-246.636 -94.9977 314.93
-255.013 34.5348 325.591
-216.097 65.3782 351.261
0.545904 -169.151 388.529
-53.1374 -149.286 390.756
-51.7539 -199.441 363.618
-54.4356 -36.7759 416.183
-53.8907 -92.9963 409.126
0.490452 -61.1096 422.204
-156.835 -153.711 353.438
-109.369 -125.136 386.202
-159.552 -99.095 374.557
-166.548 33.5445 382.099
-166.199 -34.8219 384.165
-111.701 -1.61885 406.01
-351.808 -44.6689 150.951
-340.372 -47.3034 199.917
-359.525 -45.3645 40.9259
-360.695 -45.5437 94.506
-318.455 -141.971 155.15
-342.966 -95.7177 126.061
-329.397 -142.367 98.8589
-337.784 -52.3251 -204.525
-348.712 -52.0982 -150.697
-328.748 -144.3 -106.324
-342.809 -100.408 -131.077
-322.811 -147.541 -160.665
-357.834 -47.3842 -97.0097
-355.98 -44.5574 -36.3773
-227.932 -298.239 31.0951
-259.054 -268.927 0.585167
-227.131 -299.468 -31.3414
-308.533 -194.642 63.2858
-286.455 -233.077 32.6938
-281.152 -228.892 93.4701
-279.87 -224.541 -99.6059
-285.839 -233.196 -30.4506
-306.82 -191.78 -65.6065
-346.601 -96.4714 3.41665
-329.775 -148.422 -34.8023
-331.177 -148.157 35.9122
-291.885 -0.44717 -297.025
-316.703 -32.6428 -257.126
-217.729 64.9273 -359.215
-256.882 32.9323 -331.617
-251.557 -98.2662 -321.727
-257.508 -33.6274 -332.059
-218.123 -65.3789 -359.244
-0.846512 168.021 -389.262
-56.9466 150.013 -396.349
-58.2756 35.6203 -426.804
-57.9193 93.2081 -417.042
-0.660342 59.2906 -426.097
-112.5 126.572 -394.149
-163.08 100.565 -382.976
-56.1501 -201.741 -367.88
-57.3662 -150.895 -395.853
-0.308591 -169.058 -388.968
-163.616 -101.167 -382.949
-113.066 -127.468 -393.946
-161.286 -157.49 -361.189
-0.388562 -58.7355 -425.256
-58.0241 -93.0633 -415.755
[...]
POINT_DATA 642
SCALARS Mean_Curvature double 1
LOOKUP_TABLE default
0.00672787
0.00668189
0.00580143
0.00618288
0.00794691
0.00523853
0.00451392
0.0050217
0.00707877
0.00827944
0.00916208
0.00532327
0.00852321
0.00531798
0.00510792
0.0050412
0.00482957
0.0082457
0.00693919
0.00550476
0.00418563
0.00250722
0.00506242
0.00819638
0.0053863
0.00525324
0.00486851
0.0037015
0.00323939
0.00561479
0.00402759
0.00580795
0.00408126
0.00556367
0.00429363
0.00410975
0.00797273
-0.000414967
0.0020176
0.00580128
-0.000545264
0.00263622
0.00487331
0.00427535
0.00710965
0.00566519
0.00498094
0.00732457
0.00553702
0.00497796
0.00505623
0.00807153
0.00612301
0.00516184
0.00467666
0.00573007
0.00784574
0.00714133
0.00069696
-0.00283082
0.00364563
0.000321737
0.00577868
0.00459873
0.00482664
0.00621659
0.00176782
0.00564192
0.00525695
0.00399744
0.00652917
0.00505998
0.00405597
0.00621935
0.00705863
0.00400075
0.00138332
0.00468134
0.00528213
0.00569575
0.00525195
0.0066286
0.0054637
0.00419787
0.00464284
0.00235057
0.00543642
0.00539623
0.00687551
0.00544995
0.00528357
0.00369726
0.00652839
0.00603988
-0.00150014
0.0056514
0.00440719
0.00411346
0.00643164
0.00468308
0.00482302
0.00571974
0.00579517
0.00517138
0.00398116
0.00530972
0.00616397
-0.00055248
0.00746625
0.00571172
0.00606091
0.0069202
0.00465092
0.00394065
0.00460572
0.00565238
0.0059665
0.00535799
0.00466882
0.00550062
0.00484595
0.0036638
0.00640927
0.00493765
0.00546588
0.00680133
0.00351319
0.00468898
0.00592247
0.00580909
0.0054991
0.00607612
0.00692123
0.00474199
0.00705345
0.00029143
0.0046707
0.00533941
0.00566495
0.00811616
0.0059215
0.00565408
0.00507779
0.0063917
-0.00085561
0.00496648
0.00444035
0.00525513
0.00582388
0.00490079
0.00373836
0.0056628
0.00568449
0.0054415
0.00575939
0.0061944
0.00432852
0.00571019
0.00564473
0.00425144
0.00663482
0.00418339
0.00549222
0.00580826
0.00539887
0.00616973
0.00845509
0.00666784
0.00546251
0.0073589
0.00475322
0.00636918
0.00488821
0.00658048
0.00512479
0.00514913
0.00555943
0.00582946
0.00447099
0.00423412
0.00573023
0.00486247
0.00412926
0.00519121
0.00514817
0.00547832
0.0051228
0.00486209
0.00506126
0.00468926
0.00505455
0.00501598
0.00572409
0.00604186
0.00547898
0.00733999
0.00613989
0.00575973
0.00606127
0.00557145
0.00481606
0.00525278
0.00573499
0.00520412
0.0057873
0.00547416
0.0058264
0.00569611
0.0055072
0.00576579
0.00542449
0.00572072
0.00526749
0.00707333
0.00524665
0.0052948
0.00529946
0.00705598
0.00533838
0.00505906
0.00454484
0.00474084
0.00617126
-0.00631476
0.00663875
0.00511654
0.00526942
0.00523813
-0.00736116
0.00463872
0.00430321
0.00470134
0.00470395
0.00397276
0.00347513
0.00693195
0.00529121
0.00652136
0.0073938
0.00450449
0.00622652
0.0023624
0.00211794
0.00382253
-0.00506126
0.00429502
0.00695854
0.00615224
0.00764885
0.00512204
0.00579654
0.00569212
0.00564771
0.00533831
0.00554546
0.00563469
0.00545428
0.00609974
0.00620777
0.00728584
0.00547218
0.00555154
0.00712002
0.00415034
0.00535046
0.00543384
0.0053537
0.00678231
0.00546855
0.00648938
0.00507831
-0.00882319
0.00557321
0.00534585
0.00555203
0.000927426
0.00353874
-0.00707866
0.00705427
0.0050679
0.00575717
0.00574211
0.0108094
0.00978393
0.00636622
0.00604466
0.00565287
0.00373414
0.00371111
0.00237449
0.00415949
0.0052566
0.00611251
0.00568422
0.00488518
0.00653856
0.00638842
0.00761525
0.00623257
0.00369864
0.0046857
0.00548088
0.00520751
0.00527819
0.0050203
0.00514075
0.00598922
0.00440399
0.00439727
0.00490482
0.00515336
0.00717112
0.00458631
0.00504383
0.00548774
0.00518269
0.00544222
0.00510565
0.00358755
0.00240605
0.00546827
0.00554547
0.00387179
0.00265203
0.00532561
0.00513175
0.00439575
0.0053949
0.00550702
0.00517581
0.0052179
0.00552996
0.00690858
0.00500751
0.00497622
0.00400852
0.00480538
0.00842061
0.00562032
0.0054006
0.0055138
0.00450674
0.00564583
0.00609001
0.00267074
0.00710745
0.00330515
0.00627266
0.00324056
0.00358421
0.00408868
0.00641964
0.0035422
0.00431131
0.00587854
0.00595701
0.00795023
0.00174551
0.00380949
0.00461569
0.00445074
0.0047498
0.00409276
0.00407249
0.000469649
0.00466723
0.00232384
0.00192104
0.003346
0.00330901
0.00650042
0.00555356
0.00540804
0.00486689
0.00525214
0.00532007
0.00488522
0.00461099
0.00585883
0.00547162
0.00586003
0.00471454
0.00578152
0.00568007
0.0055687
0.00558367
0.00403789
0.00533306
0.00569375
0.00576693
0.00436014
0.00518996
0.00536866
0.00528715
0.00598775
0.00586073
0.00644868
0.00393735
0.00599635
0.00563581
0.00583838
0.00558658
0.00554659
0.00458068
-0.00781059
0.00627831
0.00461195
0.00804628
0.00463383
0.00850078
0.00542412
0.00718671
0.00730708
0.00550466
0.00539339
0.00573823
0.00574098
0.00753983
0.00741642
0.00668064
0.00716053
0.00535074
0.00446476
0.0047497
0.00410236
0.00382391
0.00449301
0.00414301
0.00471259
0.00465173
0.00416446
0.00571518
0.00635149
0.00807079
0.00567162
0.0059029
0.00568124
0.00313013
0.00615767
0.00415597
0.00617556
0.00480407
0.00545158
0.00442197
0.00526229
0.00423373
0.00547879
0.00548944
0.00549913
0.00447563
0.00570422
0.00454487
0.00416782
0.00585529
0.0044711
0.00399466
0.0070763
0.00517683
0.00623834
0.00558819
0.00612101
0.00417057
0.00441074
0.004144
0.00467306
0.00433348
0.00607361
0.00398494
0.00392889
0.00634945
0.00527913
0.00724889
0.00464847
0.00398577
0.00467561
0.00421057
0.00424188
0.00504807
0.00510237
0.00476907
0.00510456
0.00457126
0.00525034
0.00589237
0.00564032
0.0043726
0.00451189
0.00552961
0.00579424
0.00455032
0.0044674
0.00542216
0.00525981
0.00534173
0.00476821
0.0041427
-0.000138343
0.00392652
0.00750621
-0.000160655
0.00342152
0.00569635
0.00601115
0.00586905
0.00541991
0.00481848
0.00029492
0.00477663
0.00355462
0.00400594
0.000429965
0.00549932
0.00526493
0.00556052
0.00563347
0.00587139
0.00585427
0.00676257
0.0076796
0.00708665
0.00533969
0.00990801
0.00918956
0.00678241
0.00572277
0.00517661
0.00547031
0.00767203
0.00548946
0.00953633
0.00508732
0.0042034
0.00519085
0.00493066
0.00344944
0.00120304
0.00295227
0.00126202
0.00845054
0.00371228
0.00513858
-0.000271247
0.00436082
0.0056009
0.00577294
0.00289859
0.00545208
0.00464629
0.00352787
0.00488451
0.00182462
0.00311131
0.00539655
0.00566286
0.00482814
0.00519347
0.00378543
0.00568141
0.00423571
0.00512973
0.00581381
0.00601426
0.00320904
0.00435388
0.00227242
0.00550269
0.00435582
0.0062335
0.00541092
0.00685391
0.00510552
0.00395147
0.00447977
0.00431191
0.00352334
0.00522675
0.00547379
0.00565582
0.00572491
0.00451918
0.00581389
0.00524368
0.00637935
0.00522407
0.00540296
0.00492659
0.00568393
0.00515676
0.00591263
0.00686072
0.00598371
0.00566334
0.00544796
0.00489965
0.00506825
0.000705575
0.00231131
0.00241885
0.0071334
0.00544163
0.00537231
0.00758287
0.00708572
0.00784349
0.00834512
0.0052899
0.00393919
0.00609937
0.00488607
0.0048897
0.00609754
0.00522233
0.00541747
0.00434668
0.00581905
0.00608228
0.00423663
0.00606941
0.00610279
0.00453039
0.00536423
0.00502277
0.00455232
0.00503917
0.00247365
0.00413462
0.00482814
0.00688751
0.00691926
0.00267088
0.00472454
0.00401541
0.00677905
-0.00545888
0.0051079
0.00565794
0.00561452
0.006613
-0.00814016
0.00384105
0.00204036
0.00488714
SCALARS CoVolArea double 1
LOOKUP_TABLE default
2161.36
2202.59
2263.25
2277.3
2463.42
2642.47
2656.65
2660.15
2383.22
2323.79
2249.77
2306.44
2961.18
3388.57
3400.26
3433.52
2982.48
2784.3
2741.5
3428.09
3259.7
3410.76
3467.48
2996.3
3320.11
3464.34
3003.83
3095.15
3706.3
3460.89
3226.04
3443.28
3166.98
3350.94
3237.3
3220.6
2904.9
3464.29
3449.68
3443.4
3327.05
3429.08
2801.92
3453.55
2915.95
3130.79
3512.5
2891.13
3234.19
3573.65
3277.15
3264.77
2728.11
3269.19
3598.17
2805.5
3290.99
2956.54
3826.87
3797.55
3559.36
3970.45
3097.24
3204.98
3154.6
2918.77
3240.72
3245.79
3407.7
2850.78
3238.52
3150.95
3503.88
2756.09
3299.27
3108.68
2763.16
3488.1
2845.96
3275.91
3580.55
2994.04
3504.91
3260.55
3628.3
3562.81
3099.89
3544.68
3200.57
3612.56
3216.14
3214.08
2805.28
2747.07
3528.6
2804.22
3203.81
3095.36
3635.35
3184.49
3425.59
3708.88
3265.6
3737.74
3472.59
3473.66
3276.3
3532.13
2925.55
3223.81
3351.96
2807.7
2880.8
3355.19
2984.78
3096.56
3276.81
2880.94
3096.29
3378.26
3261.66
3330.89
2857.62
3073.3
3347.11
2809.21
3313.26
2946.11
3210.84
2874.42
2970.74
3179.52
3145.15
3581.46
3081.42
3551.79
2921.85
3294.6
3365.23
2641.44
3239.46
3235.23
3134.2
2839.08
3686.84
3215.67
2916.18
3636.19
3556.7
3651.8
3301.96
3312.73
3215.83
3405.87
3165.99
3280.86
3742.9
3748.27
3749.03
3130.9
3440.57
3520.49
2713.86
2874.17
2758.28
3268.06
2884.76
2725.31
3074.94
3028.4
3493.22
2988.72
3113.88
2756.8
3487.55
3181.91
3137.97
2886.69
3168.48
3382.46
3154.77
3291.9
3244.47
3520.89
3274.51
3183.62
3195.02
3288.85
3529.81
3924.7
3945.28
3958.5
2881.02
2615.2
3421.49
2972.39
2730.4
2875.09
3140.1
3175.95
3274.24
3553.5
3279.16
3220.59
3262.67
3527.89
2676.1
2917.66
2785.26
3161.22
2919.3
2778.33
3109.83
3008.25
3450.75
3886.41
3898.74
3672.19
3256.44
3168.51
3308.97
3220.86
3028.94
3848.48
3354.39
3150.05
3189.76
3503.05
3793.72
2980.86
3283.6
3340.51
3153.6
3240.42
3217.6
2950.77
3016.49
2855.45
2867.38
3053.69
3038.34
4080.71
3941.89
3818.58
3878.08
3109.21
2837.44
3137.95
3065.96
3063.73
2924.44
3172.37
3195.32
3477.49
3213.9
3223.03
3105.78
3166.3
2793.54
2944.87
2886.17
2999.44
2864.85
2756.99
3188.43
3081.11
3437.68
3548.32
3743.18
3471.32
2882.1
4112.94
3154.95
2804.73
2931.5
2882.98
2895.62
3864.93
2917.49
2969.41
2741.82
3414.85
2644.38
2623.77
2978.71
2734.42
2823.25
2738.29
3481.72
3976.02
3831.06
3458.27
2926.53
2727.35
3525.06
3087.95
2801.74
2965.49
3307.94
3267.76
3313.07
3526.56
3280.34
3212.61
3302.36
3551.19
2953.36
3212.03
3066.89
3369.91
3143.37
2847.61
3249.16
3248.77
3510.88
3974.13
3942.65
3924.37
3461.18
3398
3537.85
3319.9
3400.87
3450.04
3604.35
2962.16
3174.13
3473.52
3197.58
3089.08
3210.37
3512.16
3087.31
3274.11
3097.89
3572.4
3297.88
3192.27
3133.23
3293.78
3498.58
4000.89
3966.71
4015.46
2850.51
2751.6
3238.81
2879.25
2838.68
2921.89
3175.29
2773.51
2835.19
3187.13
2795.96
2631.84
2806.84
3449.5
2773.21
2819.22
2755.82
3106.12
2801.72
2855.02
3211.06
3002.92
3332.75
3949.61
3831.19
3630.85
3196.83
2900.63
3595.54
3270.06
3222.06
3280.15
3619.62
3294.49
3352.19
3743.81
3408.65
3434.97
3343.03
3623.58
3218.26
3401.81
3319.2
3655.66
3377.65
3247.13
3467.6
3463.73
3764.43
4106.5
4149.16
4115.84
3233.03
3272.41
3179.96
3122.69
3227.54
3223.33
3526.31
3255.59
4047.22
2916.56
3248.33
3111.98
3150.37
2855.35
3017.48
2989.33
2837.68
3505.73
3162.79
3211.56
2729.34
2896.04
3007.47
3598.42
3528.18
3849.3
2808.56
2964.41
2854.97
3309.95
2995.57
2914.68
2981
3013.48
3330.49
2936.06
2947.03
2732.27
3358.14
3043.94
3104.57
2939.73
2936.46
3259.64
2995.06
3201.91
3089.4
3352.45
3135.56
3064.7
3190.88
3187.74
3399.13
3704.46
3721.32
3743.16
2974.87
2789.71
3338.4
3052.38
2771.73
2931.34
3083.48
2998.59
3069.35
3343.67
3086.66
3041.83
3086.02
3345.04
2749.27
2929.42
2814.58
3067.45
2892.44
2732.12
2957.27
3023.98
3317.54
3748.3
3741.92
3668.06
2898.64
2767.25
3153.22
2922.89
3073.73
2909.56
3286.82
2749.47
2879.89
3343.49
2927.31
3111.17
2890.23
3129.73
3111.75
3262.72
3115.25
3514.78
3429.62
3157.44
3089.4
3383.75
3562.67
3577.91
3652.62
3642.15
2932.72
2766.9
3625.67
3194.04
3161.77
3226.05
3398
3237.75
3219.85
3518.55
3245.54
3241.77
3088.55
3395.35
2813.36
2972.89
3020.32
3009.45
2764.32
2745.5
3215.88
3174.73
3512.57
3746.97
3732.74
3561.92
2843.73
3382.42
2871.11
2851.94
3174.16
2953.94
2848.06
3517.22
2899.35
3025.29
2939.4
3553.85
2898.72
2799.73
3204.35
2965.75
2826.95
2880.57
3311.17
3864.29
3955.03
3595.86
3279.04
3537.06
3344.48
3307.5
3592.6
3203.22
3616.06
3278.47
3198.84
3480.14
3486.4
3645.56
3498.58
3353.71
3612.03
3948.67
4000.4
4003.04
2896.52
3297.34
2979.42
2944.47
3236.08
3166.88
3353.37
3127.5
3075.88
3301.23
2953.86
3137.12
2864.8
3036.09
3334.26
3661.67
3652.62
3592.02
3194.24
3304.22
3048.05
3233.9
3510.65
3096.23
3122.45
3301.25
3202.59
3354.94
2971.8
3484.76
3138.45
2849.1
2929.03
3551.69
3402.34
3782.3
3337.82
3628.16
3364.78
3364.01
3628.04
3438.32
3787.81
3486.12
3377.2
3623.45
3445.39
3619.25
3373.35
3472.38
3783.53
4183.99
4222.41
4185.02
2998.54
3426.63
2881.57
2834.16
2972.76
2933.21
3509.71
2825.75
3017.81
3822.53
2965.24
2998.49
2848.16
3183.47
4063.26
3886.39
4109.63
3544.44
SCALARS SignedDistance double 1
LOOKUP_TABLE default
267.986
263.051
251.526
240.821
194.665
197.301
194.755
201.284
240.422
228.653
250.306
235.346
245.748
190.704
194.311
192.04
258.068
260.866
263.464
193.072
279.515
291.288
188.853
236.229
202.52
190.862
276.422
262.065
172.054
186.982
269.818
181.729
251.059
194.733
230.063
234.754
220.429
239.609
231.772
181.712
265.733
279.746
255.101
213.038
230.492
202.176
207.493
238.3
186.648
192.385
193.42
222.51
261.646
186.558
188.648
259.287
222.078
225.774
295.605
295.151
292.505
292.15
228.739
268.447
229.113
270.435
297.653
188.067
220.867
259.491
238.33
214.486
281.401
280.202
299.799
272.478
264.755
205.949
247.171
193.266
187.185
232.735
199.373
202.103
193.749
202.372
215.413
192.327
177.318
183.59
195.423
278.874
255.888
258.038
283.715
258.814
271.485
261.672
182.788
211.532
175.906
168.379
181.997
169.217
175.97
212.279
185.638
290.453
262.003
202.462
223.942
251.195
248.976
238.797
237.773
206.193
228.539
244.757
216.354
217.224
193.156
233.442
228.984
218.807
227.105
235.535
236.405
244.556
220.965
233.109
243.136
225.729
217.663
224.08
218.164
250.477
250.058
183.693
211.38
253.283
224.326
202.484
260.74
271.308
276.628
265.437
256.747
180.532
185.869
193.037
246.759
222.215
236.212
211.785
262.908
230.797
180.391
169.209
169.159
262.732
289.507
273.593
261.481
242.52
249.574
228.256
236.824
250.272
208.254
221.757
202.535
217.218
215.754
234.146
197.141
204.31
194.324
240.805
219.702
222.068
190.077
191.411
197.826
192.208
189.339
187.917
190.218
190.809
191.931
209.095
198.127
199.358
245.165
264.515
203.042
224.939
259.88
241.819
240.808
190.067
186.721
188.811
184.881
186.823
184.889
188.859
260.945
242.024
244.641
239.927
240.447
258.293
204.58
222.622
202.088
198.147
198.131
221.983
278.312
280.936
275.436
276.292
277.697
292.93
282.027
277.924
276.038
276.66
288.911
271.488
273.786
274.063
214.622
231.418
214.944
266.766
250.021
245.383
244.553
249.682
266.158
295.667
283.591
287.013
294.198
279.515
265.612
281.205
297.421
288.719
276.663
194.709
205.693
204.602
202.415
188.07
222.054
241.791
253.095
240.247
231.118
261.148
251.04
269.003
202.081
224.569
213.262
247.499
227.329
254.474
275.358
294.334
288.554
269.572
264.563
261.253
266.719
295.318
286.413
296.415
278.298
288.636
257.764
256.017
260.465
258.763
279.268
269.426
281.904
297.664
290.87
278.454
235.831
254.905
197.684
214.81
241.03
228.029
219.373
197.836
190.729
186.769
187.496
187.766
187.081
188.563
232.671
215.661
214.305
212.477
212.795
231.36
193.95
201.592
192.268
192.703
190.416
200.317
200.466
201.749
189.044
194.246
198.215
200.518
195.804
224.555
209.765
196.269
201.383
208.552
198.756
190.159
183.907
186.389
195.298
186.719
182.338
180.004
197.747
187.163
190.359
189.566
187.046
186.558
259.217
247.268
285.842
273.73
260.001
266.195
271.112
252.861
266.072
283.196
273.88
266.93
284.957
287.874
256.342
261.401
256.384
268.656
266.055
260.912
270.242
266.677
274.491
281.277
278.062
277.277
213.264
231.79
186.283
197.43
196.838
196.912
184.319
186.926
180.8
169.466
170.839
170.438
175.765
177.82
189.046
178.457
183.174
174.556
172.741
181.881
172.355
172.417
169.042
173.143
166.048
172.577
206.179
195.935
235.904
217.995
180.233
195.929
194.051
273.362
287.28
266.66
276.987
286.449
271.998
260.115
221.758
227.13
244.428
199.373
209.82
189.166
260.51
238.358
251.328
237.867
243.497
214.844
245.171
242.69
240.104
244.801
245.369
252.645
234.487
238.913
233.692
215.664
226.581
238.288
210.396
217.062
199.107
248.349
236.857
242.247
205.823
204.87
193.83
225.79
216.319
224.257
192.812
204.246
205.539
236.356
221.831
230.497
236.183
235.13
233.055
235.066
223.435
231.733
227.399
207.46
214.673
230.324
224.242
228.182
222.344
228.044
244.297
243.55
249.583
229.826
236.481
227.073
240.407
240.076
236.64
232.548
233.774
232.206
232.023
238.027
221.675
225.927
230.368
225.832
223.822
248.611
240.586
229.852
233.811
239.757
231.647
224.335
206.165
219.894
206.181
225.696
228.607
232.28
232.631
230.424
230.007
219.872
221.968
219.812
242.139
244.811
240.048
239.094
256.357
248.434
259.408
188.691
199.093
193.888
195.038
180.071
214.396
231.306
245.068
227.671
221.84
252.793
241.093
260.754
189.168
209.98
199.369
234.235
214.601
243.191
249.837
261.846
255.187
254.449
259.4
252.554
257.469
278.865
277.61
287.444
265.551
271.561
250.067
244.831
259.022
254.359
270.688
264.79
271.277
269.002
272.651
267.68
184.745
184.111
184.434
180.7
186.331
201.422
189.618
193.951
192.673
186.773
200.379
195.381
200.383
194.242
188.727
179.056
185.733
183.552
250.913
240.376
246.446
253.592
253.821
206.757
211.169
207.993
220.143
231.282
235.406
253.191
246.063
225.742
218.223
237.356
228.181
244.951
197.516
230.221
212.595
194.344
196.654
253.43
269.044
261.47
250.957
253.218
236.318
205.697
218.136
246.381
256.97
238.117
248.718
218.685
205.095
177.507
190.086
190.086
177.506
178.161
170.003
172.902
173.349
170.935
182.964
170.948
173.782
173.726
169.271
171.739
169.782
171.727
246.386
272.276
259.771
248.989
251.35
256.877
277.673
267.2
276.478
285.519
268.003
255.616
261.509
282.228
287.696
279.919
288.458
268.863
