# vtk DataFile Version 4.2
vtk output
ASCII
DATASET POLYDATA
POINTS 642 double
-0.473109 0.786948 0.0223766
0.482218 0.790858 0.0209841
-0.451251 -0.758543 -0.00960818
0.460716 -0.764764 -0.00870985
0.00285976 -0.482139 0.82958
0.00191126 0.513797 0.827573
0.000485653 -0.504374 -0.870234
0.00290964 0.506921 -0.869663
0.782352 0.00394401 -0.543759
0.77615 0.0120282 0.518808
-0.768297 0.00101407 -0.537486
-0.767882 0.0157446 0.514241
-0.734578 0.472663 0.312857
-0.475785 0.299781 0.789187
-0.290981 0.783908 0.493784
0.295788 0.785401 0.495253
0.00133111 0.931671 0.0260364
0.293473 0.746283 -0.506227
-0.284957 0.744315 -0.502567
-0.482131 0.296355 -0.828799
-0.72227 0.454309 -0.312193
-0.871037 0.012666 0.00191442
0.480672 0.30117 0.793071
0.744036 0.478488 0.313646
-0.461296 -0.27967 0.787646
0.00274633 -0.00352836 0.979614
-0.709311 -0.440815 -0.324741
-0.704731 -0.433466 0.299509
0.000735342 0.000611825 -1.03135
-0.483895 -0.297973 -0.83039
0.735778 0.460702 -0.319553
0.494321 0.302745 -0.834869
0.715966 -0.43993 0.3018
0.469687 -0.282236 0.793961
0.276514 -0.725076 0.477099
-0.269739 -0.721682 0.475456
0.00264935 -0.904331 -0.00940076
-0.281027 -0.738075 -0.50296
0.284939 -0.74109 -0.501258
0.492668 -0.298936 -0.834977
0.721172 -0.445368 -0.32525
0.885366 0.0122997 -0.000823966
-0.6206 0.663778 0.167645
-0.546892 0.659771 0.421183
-0.403709 0.81824 0.257482
-0.66385 0.15267 0.67006
-0.644585 0.409022 0.575717
-0.78387 0.24065 0.434529
-0.144736 0.670678 0.695176
-0.402893 0.570664 0.672568
-0.23729 0.42771 0.841406
-0.150744 0.906238 0.272628
-0.259009 0.890901 0.0253337
0.14862 0.671302 0.696338
0.00139388 0.826903 0.520007
0.264287 0.892821 0.0247324
0.153945 0.906971 0.272876
0.410741 0.821394 0.257941
-0.146597 0.870558 -0.246014
-0.395535 0.788033 -0.235037
0.404623 0.791309 -0.238438
0.151172 0.872219 -0.247195
-0.144866 0.646274 -0.720632
0.00252933 0.783904 -0.528428
0.152142 0.647222 -0.722173
-0.533402 0.629158 -0.427619
-0.612123 0.648527 -0.139655
-0.241974 0.425115 -0.885647
-0.400927 0.552298 -0.699592
-0.776213 0.227097 -0.448703
-0.634182 0.392887 -0.597167
-0.663327 0.143159 -0.699916
-0.754317 0.485235 0.0152116
-0.844232 0.00580039 -0.297632
-0.835034 0.241929 -0.164086
-0.84097 0.25094 0.173141
-0.845227 0.0176457 0.288635
0.555022 0.663775 0.423379
0.630907 0.669131 0.167011
0.241828 0.428657 0.84345
0.408819 0.573254 0.675809
0.791317 0.243949 0.436212
0.651416 0.413547 0.579051
0.669115 0.151963 0.67473
-0.251371 0.156356 0.928414
0.00210474 0.275811 0.933886
-0.651686 -0.1294 0.668214
-0.495974 0.00513186 0.829155
0.00307383 -0.27051 0.939956
-0.24643 -0.1537 0.930624
-0.226369 -0.403847 0.842458
-0.826754 -0.219102 0.162655
-0.764528 -0.205992 0.43077
-0.770081 -0.221078 -0.454759
-0.826806 -0.225028 -0.17522
-0.592663 -0.627366 0.14117
-0.734611 -0.4608 -0.00770169
-0.595268 -0.631268 -0.161106
-0.511809 -0.000423747 -0.873467
-0.663188 -0.144022 -0.701103
0.00162461 0.282181 -0.986026
-0.261192 0.160377 -0.979918
-0.243972 -0.425476 -0.886607
-0.261719 -0.160448 -0.979248
0.000846476 -0.281555 -0.985192
0.412046 0.557121 -0.704711
0.249653 0.428729 -0.888422
0.624357 0.653538 -0.144277
0.546271 0.633929 -0.433913
0.678148 0.148687 -0.706464
0.649245 0.400044 -0.604267
0.790345 0.233312 -0.456038
0.603184 -0.634378 0.142118
0.52296 -0.613207 0.408224
0.386672 -0.774279 0.229095
0.659807 -0.133385 0.674843
0.624769 -0.375294 0.575391
0.77443 -0.210786 0.434928
0.140532 -0.619856 0.688509
0.388305 -0.528891 0.669946
0.232771 -0.405068 0.845668
0.14474 -0.854724 0.239531
0.251503 -0.865759 -0.009243
-0.134808 -0.618487 0.68705
0.00279534 -0.762575 0.500901
-0.244299 -0.862172 -0.00996138
-0.138509 -0.852673 0.238957
-0.378364 -0.769154 0.228075
0.146544 -0.867263 -0.258523
0.390653 -0.783903 -0.247837
-0.38274 -0.778323 -0.24964
-0.141753 -0.865284 -0.259196
0.147989 -0.640297 -0.722308
0.000713983 -0.782701 -0.524108
-0.147168 -0.640886 -0.722415
0.532513 -0.622006 -0.43438
0.605879 -0.638623 -0.159226
0.247361 -0.42505 -0.887816
0.407263 -0.548461 -0.705465
0.782424 -0.221574 -0.459848
0.641422 -0.389684 -0.606442
0.675909 -0.143964 -0.706912
0.746844 -0.467804 -0.00668876
0.858724 0.00794547 -0.303099
0.840978 -0.228174 -0.176205
0.839428 -0.224613 0.163211
0.856206 0.0150644 0.289367
0.252991 -0.154681 0.93462
0.502253 0.0025978 0.835298
0.256405 0.155539 0.931314
-0.513829 -0.607604 0.405706
-0.380717 -0.5259 0.666084
-0.615623 -0.371143 0.569987
-0.401477 -0.548782 -0.70344
-0.52422 -0.617695 -0.435561
-0.63129 -0.389105 -0.602363
0.521849 0.00110596 -0.877965
0.265943 -0.16095 -0.981042
0.266451 0.162714 -0.981569
0.852411 0.255074 0.170999
0.849093 0.246864 -0.169826
0.766322 0.491466 0.0118319
-0.54695 0.735817 0.0918241
-0.520096 0.748204 0.218422
-0.444193 0.808373 0.135866
-0.651626 0.571797 0.370104
-0.592104 0.667112 0.297963
-0.684083 0.575879 0.241671
-0.353108 0.811449 0.376882
-0.478443 0.748404 0.34429
-0.424562 0.732037 0.462621
-0.727427 0.079805 0.592083
-0.734067 0.203117 0.558647
-0.782617 0.122395 0.480943
-0.568091 0.35839 0.691155
-0.660281 0.283747 0.631521
-0.578957 0.226593 0.736393
-0.768119 0.358571 0.378142
-0.724706 0.328889 0.508051
-0.700668 0.447221 0.447508
-0.0678728 0.593437 0.772619
-0.196629 0.556896 0.775465
-0.111604 0.477824 0.84103
-0.350159 0.687435 0.589201
-0.277836 0.629485 0.688902
-0.219745 0.734973 0.601533
-0.359729 0.368036 0.824693
-0.326132 0.503207 0.76546
-0.445131 0.439158 0.740498
-0.604492 0.542384 0.504751
-0.532676 0.496031 0.632116
-0.483233 0.625087 0.553347
-0.331724 0.866023 0.14645
-0.376332 0.84344 0.0240926
-0.224442 0.857366 0.387586
-0.280799 0.871444 0.270316
-0.132501 0.920915 0.0259597
-0.205053 0.908336 0.150996
-0.0748855 0.930177 0.15131
0.0716354 0.593711 0.773201
0.00169147 0.682216 0.701183
0.151898 0.816312 0.514243
0.0778813 0.758598 0.612893
0.223962 0.735996 0.603027
-0.0746623 0.758265 0.612379
-0.148537 0.815621 0.513441
0.38374 0.846425 0.0231149
0.337895 0.868502 0.146268
0.452342 0.812001 0.135402
0.0775738 0.930643 0.151309
0.20913 0.909604 0.150949
0.135923 0.921882 0.0256551
0.358964 0.813842 0.378059
0.285777 0.873325 0.270745
0.228418 0.858537 0.388345
-0.0767132 0.881302 0.400447
0.0794137 0.881527 0.400684
0.00120943 0.919347 0.276377
-0.327602 0.849212 -0.103535
-0.439622 0.7939 -0.0956426
-0.0735251 0.911571 -0.105822
-0.202052 0.889991 -0.106216
-0.344434 0.772206 -0.373903
-0.274091 0.837623 -0.246001
-0.218598 0.814016 -0.382356
0.448701 0.79757 -0.0978447
0.33466 0.851949 -0.105128
0.225275 0.816286 -0.385017
0.280906 0.840184 -0.248315
0.353666 0.775454 -0.378088
0.206841 0.891801 -0.107176
0.0768045 0.912311 -0.106187
-0.0682159 0.578683 -0.806901
0.00317711 0.657025 -0.726659
0.0747628 0.579426 -0.807615
-0.14572 0.773541 -0.521894
-0.0735213 0.723407 -0.629668
-0.217659 0.702052 -0.619259
0.225412 0.70285 -0.621641
0.079664 0.723445 -0.63039
0.151948 0.774265 -0.523705
0.00176508 0.883377 -0.249387
0.0789003 0.836436 -0.395202
-0.0743235 0.835246 -0.394205
-0.511345 0.724943 -0.193386
-0.543489 0.727605 -0.0523295
-0.414657 0.696122 -0.470855
-0.467311 0.714774 -0.339447
-0.670804 0.556614 -0.227839
-0.578513 0.640379 -0.289035
-0.636693 0.547479 -0.373587
-0.113721 0.4732 -0.884975
-0.198957 0.544978 -0.811474
-0.446901 0.430249 -0.774535
-0.328972 0.493525 -0.801323
-0.366061 0.365832 -0.867277
-0.277607 0.608267 -0.715804
-0.345545 0.657719 -0.608034
-0.779008 0.108682 -0.500416
-0.726296 0.19052 -0.580898
-0.725837 0.0672358 -0.618269
-0.686479 0.427778 -0.460017
-0.713426 0.314075 -0.526235
-0.757493 0.342934 -0.385971
-0.582569 0.220378 -0.771362
-0.654073 0.272431 -0.657482
-0.566452 0.348626 -0.72145
-0.474375 0.598055 -0.570942
-0.526887 0.47909 -0.65695
-0.591123 0.518587 -0.519983
-0.624217 0.660986 0.0190365
-0.743238 0.473514 -0.15068
-0.690777 0.571666 -0.0647529
-0.695674 0.578515 0.0963168
-0.75155 0.485598 0.170461
-0.810884 0.00284774 -0.42916
-0.820939 0.118871 -0.374309
-0.863133 0.127535 -0.0819993
-0.848747 0.124346 -0.231907
-0.863156 0.00907318 -0.153013
-0.813314 0.238777 -0.311394
-0.788772 0.351752 -0.242256
-0.823585 0.132054 0.363773
-0.810526 0.0175132 0.412254
-0.797202 0.365319 0.248112
-0.819342 0.251405 0.308279
-0.865532 0.0159 0.15195
-0.852399 0.134671 0.231252
-0.865641 0.131867 0.0903911
-0.80466 0.366758 -0.0743791
-0.846252 0.250069 0.00850025
-0.808459 0.372736 0.095503
0.529045 0.75257 0.218545
0.556826 0.740475 0.0906573
0.431123 0.734704 0.46464
0.486249 0.752081 0.3456
0.694256 0.581598 0.24182
0.601445 0.671968 0.298947
0.660695 0.576941 0.371875
0.1157 0.478239 0.841975
0.20107 0.557788 0.77717
0.450656 0.441863 0.744144
0.33131 0.50514 0.768497
0.36455 0.36957 0.828054
0.282812 0.630974 0.691255
0.355758 0.689394 0.591586
0.790124 0.121466 0.484132
0.738769 0.204216 0.561463
0.733644 0.0773757 0.596715
0.708765 0.452642 0.449752
0.731196 0.333265 0.510521
0.776619 0.36409 0.379257
0.584037 0.22722 0.740762
0.665772 0.286387 0.635217
0.573825 0.361463 0.695037
0.49018 0.628328 0.556299
0.539286 0.499793 0.635655
0.61233 0.546943 0.507674
-0.122304 0.353372 0.898283
0.00197042 0.406265 0.884525
-0.370021 0.232798 0.869043
-0.250446 0.294624 0.89321
0.00238828 0.137807 0.966635
-0.125858 0.214997 0.941694
-0.12467 0.0764323 0.965981
-0.720631 -0.0525043 0.59112
-0.663712 0.0106902 0.679609
-0.485382 -0.141795 0.818271
-0.580876 -0.0662618 0.75725
-0.56469 -0.205776 0.734437
-0.585683 0.0824433 0.757568
-0.493338 0.15471 0.819026
0.00297207 -0.387891 0.889896
-0.115994 -0.339473 0.902781
-0.104935 -0.450082 0.843281
-0.122824 -0.0803924 0.967774
-0.121262 -0.21268 0.945986
0.00301521 -0.141787 0.970951
-0.346447 -0.346836 0.824232
-0.241726 -0.283234 0.89578
-0.360818 -0.221631 0.869369
-0.380345 0.0808435 0.891504
-0.377022 -0.0754565 0.891824
-0.252895 -0.000324945 0.943238
-0.814985 -0.0969398 0.361127
-0.772706 -0.0895982 0.479531
-0.859063 -0.102641 0.0841847
-0.844879 -0.100789 0.226445
-0.741959 -0.321167 0.37066
[...]
POINT_DATA 642
SCALARS Mean_Curvature double 1
LOOKUP_TABLE default
1.83728
1.83363
1.82985
1.87334
2.30025
1.84716
2.08668
2.0233
1.87943
2.06076
1.89134
2.07032
2.10267
2.00069
2.13327
2.0981
1.8362
1.89027
1.93268
2.2448
1.82294
1.51848
1.97603
2.123
2.1693
1.96652
1.58804
1.75
1.92817
2.30209
1.83948
2.26663
1.79628
2.23084
1.87218
1.87203
2.10464
1.8459
1.82729
2.28931
1.66044
1.52363
1.94845
2.22883
2.13324
2.22945
2.08156
2.17317
2.01045
1.96106
1.92456
2.21571
1.86661
1.99606
2.05875
1.82017
2.17185
2.12916
1.49096
1.46869
1.39705
1.4848
2.02355
1.80226
2.00731
1.88622
1.56325
2.12271
2.09762
1.92505
2.02167
2.16086
1.676
1.86979
1.36635
1.80152
1.86173
2.21524
1.98097
1.90388
1.99206
1.97462
2.12426
2.07991
1.92542
1.7414
2.22782
2.07561
2.22475
2.09398
2.18081
1.63254
1.88432
1.95861
1.53564
1.78287
1.65035
1.71014
2.18138
2.22425
1.95696
2.10127
2.16807
2.03367
1.93786
2.23142
2.13854
1.57353
1.90982
2.21254
2.15019
1.907
1.78423
1.83406
1.85365
2.29737
2.01016
1.86762
1.99478
2.01908
2.17264
1.88328
2.00554
1.99372
1.92054
1.99842
1.87615
1.84205
1.98433
1.9112
1.85006
2.00997
1.9945
1.82887
2.10042
1.76577
1.75638
2.1013
2.36832
1.95267
2.26979
2.25124
1.68232
1.85194
1.55467
1.67184
1.84978
2.12253
2.10432
1.92126
1.82792
2.02921
2.02691
2.36248
1.68692
2.20359
2.10513
2.06621
2.04706
1.75217
1.35421
1.68071
1.89197
2.05049
1.99183
2.19051
2.1083
2.02665
2.23348
2.17472
2.22139
2.3159
2.41972
2.23476
2.01961
2.09426
2.0602
2.07832
2.25774
2.24242
2.03846
1.96264
1.83445
2.00023
1.97254
2.01108
1.96063
1.94637
1.97191
2.10814
1.9948
2.00348
2.02983
1.85709
2.2798
2.17981
1.85755
2.05286
2.02797
2.03099
1.99576
2.08111
2.00751
1.99009
2.01592
2.09695
1.83298
2.00572
1.99071
2.00896
2.00274
1.81992
2.21606
2.15112
2.23227
2.30494
2.28277
2.1535
1.66611
1.66657
1.66688
1.66876
1.81113
1.46145
1.77831
1.64794
1.63368
1.77571
1.42117
1.80344
1.63576
1.66113
2.10412
1.96532
2.09406
1.88461
1.85472
1.97342
1.86101
1.79217
1.79752
1.5065
1.64062
1.60707
1.52846
1.69865
1.92447
1.77767
1.30529
1.61009
1.84612
2.04907
2.20223
2.25029
2.22027
2.15238
2.08824
2.03422
1.93103
1.94142
2.00667
1.9023
1.93071
1.88508
2.30214
2.08183
2.17798
2.03121
2.10691
1.96334
1.75015
1.48322
1.60713
1.81936
1.90038
1.91888
1.91729
1.4811
1.78268
1.47658
1.87672
1.80879
1.8867
1.88178
1.95192
1.95781
1.73847
1.83258
1.67491
1.54412
1.59516
1.75265
2.06732
1.91004
2.16774
2.17888
2.05696
2.131
2.20633
1.82382
1.9612
2.00117
2.00907
2.00129
1.97739
1.99548
1.96763
2.19017
2.18687
2.28436
2.19564
2.08909
2.01397
2.08619
2.03704
2.03809
2.03263
2.17374
1.79554
1.77283
2.02456
1.91246
1.8437
1.79149
1.94826
2.20413
2.20608
2.13431
2.14048
2.15712
2.04247
2.09913
2.29912
2.1753
2.2128
2.02887
2.09554
2.24519
2.18553
2.15878
2.15356
2.01675
2.08635
2.0946
1.89851
1.9766
1.5468
1.79324
1.81554
1.80299
1.67998
1.91492
1.92896
1.53616
1.81969
1.92464
1.53361
1.5624
1.77654
1.72248
1.76829
1.71796
1.69652
1.74021
1.66751
1.67952
1.64
1.53512
1.57338
1.59691
2.18484
2.01729
2.21013
2.30486
2.38238
2.30071
2.21235
1.9888
2.02975
2.0098
2.01262
1.95871
2.09516
2.14681
2.10212
2.04239
2.02471
2.13788
2.09296
2.20181
1.91183
1.9724
2.01004
2.15181
2.07204
2.09243
2.17756
2.02712
1.95278
2.16007
2.17781
2.28821
2.30708
1.70278
1.49166
1.88284
1.76161
1.40535
1.80782
1.90494
2.00664
2.05196
1.87889
2.32625
2.25813
2.3536
1.88844
2.00954
1.95043
2.01521
2.01749
2.23377
1.81874
1.82906
1.85506
1.81305
1.79979
1.74721
1.85698
1.83709
1.85709
2.23505
2.08336
2.00993
2.18439
2.14317
2.27083
1.78824
1.96324
1.8142
2.15106
2.11495
2.23808
1.90414
2.00096
1.90887
2.19455
2.14501
2.17017
1.86134
2.02531
1.89177
1.87627
1.92923
1.86929
1.8661
2.07429
1.9476
2.02913
2.14823
2.02845
1.89021
1.93192
1.90434
1.93929
1.88963
1.89741
1.86252
1.83051
2.04285
1.94331
2.08736
1.84821
1.86044
1.86961
1.87732
1.88071
1.92157
1.93371
1.88093
2.03338
1.97837
1.87829
1.96099
1.90876
1.83338
1.91087
1.92603
1.94485
1.86599
1.9967
2.05565
2.17321
1.82099
2.17986
1.83247
1.73346
1.70819
1.67044
1.74439
1.85809
1.98558
1.9335
1.91039
1.81526
1.82046
1.8095
1.82861
1.70119
1.75932
1.71105
2.09022
2.21588
2.41665
2.28999
2.19394
2.26788
1.64209
1.93789
2.05455
2.01947
1.89475
2.04723
1.81506
2.45252
2.34683
2.49248
1.7544
2.39186
1.87717
1.76815
1.66649
1.7235
1.74186
1.69633
1.91391
1.90595
1.61012
1.53353
1.56229
1.64937
1.5744
1.89405
1.92045
1.73948
1.77886
1.63339
1.65503
1.56048
1.56805
1.5613
1.57787
2.20896
2.18334
2.15639
2.14859
2.01657
2.22856
1.98646
2.07831
2.17956
2.22009
1.78448
1.92981
1.77929
1.89038
1.98723
2.15618
2.07
2.15401
1.81963
1.85061
1.8189
1.78128
1.80322
2.12819
2.15023
2.15589
2.01231
1.90117
2.09558
1.8294
1.94915
2.14613
2.13038
1.88904
2.03042
1.86005
2.27689
1.93144
2.36549
2.32814
2.4032
1.76617
1.62626
1.70921
1.78064
1.78309
2.06837
2.3386
2.2404
2.0674
1.99973
2.12306
2.08796
2.28969
2.19174
2.19602
2.2968
2.28903
2.18268
2.02959
1.96934
1.95765
2.052
2.12897
1.99497
2.11402
2.11625
1.94876
1.95774
2.039
1.94435
2.03274
1.86516
1.62689
1.78396
1.91355
1.91791
1.90867
1.81793
1.86795
1.74864
1.49307
1.77291
1.90389
1.84446
1.62431
1.47185
1.61499
1.57177
1.72442
SCALARS CoVolArea double 1
LOOKUP_TABLE default
0.0130171
0.0131856
0.0125182
0.0125122
0.0123606
0.0136409
0.0135447
0.0137668
0.0126988
0.0122914
0.0125024
0.0119938
0.0200549
0.0215453
0.0211342
0.0213328
0.0212594
0.0216669
0.0214678
0.0216609
0.0216264
0.0217427
0.0218021
0.0202519
0.0204128
0.0218069
0.0207956
0.0206016
0.0235217
0.0214912
0.0216755
0.0220022
0.0208698
0.0204737
0.0207104
0.0205583
0.0195295
0.0213166
0.0216762
0.0217022
0.0214014
0.0223291
0.018906
0.0215256
0.0187251
0.0189292
0.0217372
0.0181557
0.0201322
0.0225258
0.0204896
0.0211831
0.0195101
0.0202153
0.0221905
0.0197804
0.0213493
0.0189707
0.0236824
0.0210499
0.0214215
0.0239617
0.0200842
0.0229513
0.020141
0.0220665
0.0204522
0.0205529
0.0220837
0.019148
0.0215816
0.0192161
0.0223685
0.0194303
0.0226046
0.0214024
0.0185833
0.0216961
0.0191115
0.0205566
0.0226141
0.0187793
0.0219138
0.0193406
0.0228599
0.0210521
0.0185262
0.0219262
0.0192595
0.0220744
0.018919
0.0220402
0.0183622
0.0185495
0.0225585
0.0191109
0.0222617
0.0195551
0.0228382
0.0190213
0.021409
0.0236487
0.0203459
0.0237757
0.0213933
0.0221613
0.0207063
0.0206741
0.0221235
0.0195327
0.0216022
0.0192323
0.0192159
0.0215518
0.0189478
0.0186132
0.0209674
0.0186305
0.0188638
0.0212586
0.0190225
0.0210584
0.0183697
0.0187788
0.0214182
0.0182774
0.020985
0.0188345
0.0212653
0.0191815
0.0191433
0.0211693
0.020202
0.0227458
0.0199469
0.0221284
0.0195752
0.0205069
0.0218265
0.0188297
0.0209306
0.0192959
0.022408
0.0199211
0.0230475
0.0223873
0.0191844
0.0220793
0.0220218
0.0229217
0.0213014
0.0210385
0.0207777
0.0214613
0.0215539
0.0207475
0.0233466
0.0240253
0.0240986
0.0219646
0.0230381
0.0226878
0.0172404
0.0186058
0.0169889
0.0208869
0.0192586
0.0191028
0.0194558
0.019422
0.0215521
0.0164648
0.0183621
0.0161579
0.0218609
0.0196972
0.0199332
0.0188105
0.0192584
0.0209362
0.0182105
0.0201754
0.0184813
0.0220497
0.0207148
0.0203801
0.0207146
0.0208444
0.022255
0.0237991
0.0243376
0.0242218
0.0187523
0.0175313
0.0212577
0.0193092
0.0199969
0.0194519
0.0210869
0.0182431
0.0200096
0.0219455
0.0206236
0.020518
0.0205651
0.0218123
0.0177767
0.0190035
0.0172029
0.0211829
0.0196766
0.0201816
0.0196913
0.0195487
0.0214601
0.0236929
0.0237794
0.0233118
0.0204152
0.0183939
0.0228237
0.0211118
0.0209637
0.0217181
0.0228865
0.0186942
0.0207465
0.0232313
0.0220938
0.0212754
0.021402
0.0229424
0.0183399
0.0201166
0.0183778
0.0223816
0.0206925
0.0202636
0.0203521
0.0207532
0.0225833
0.0260255
0.0257861
0.0256084
0.0205947
0.0180644
0.0218626
0.0209633
0.0209112
0.0208738
0.0219225
0.0185652
0.0201218
0.022024
0.0206715
0.0208082
0.0204253
0.0217495
0.0170189
0.0188448
0.016963
0.0214819
0.0196609
0.0198849
0.0200798
0.0197337
0.0216665
0.023907
0.0238917
0.0237798
0.01956
0.0227867
0.0208637
0.0198639
0.0209996
0.0170739
0.0191205
0.0224384
0.0203629
0.0205213
0.0201237
0.022316
0.0179589
0.0162356
0.02066
0.0188251
0.0198047
0.0192587
0.0218548
0.0248687
0.0245171
0.0238892
0.0188313
0.0174355
0.0217519
0.0196532
0.0192962
0.0194641
0.0210379
0.0185231
0.0202395
0.0223805
0.0209105
0.0208433
0.0208138
0.0222007
0.0167903
0.0188904
0.0168849
0.0210956
0.0195954
0.019139
0.0202759
0.0200486
0.0220895
0.0243495
0.024449
0.0239128
0.0207015
0.0187726
0.0223688
0.0211253
0.0211944
0.0213767
0.0225968
0.0163869
0.0185951
0.021304
0.0195619
0.0191662
0.0198286
0.021936
0.0169282
0.0189507
0.0168236
0.0221075
0.0200493
0.0201279
0.0193773
0.0198127
0.0213957
0.0245224
0.0241349
0.0246027
0.0183392
0.016272
0.0221038
0.0196622
0.0191446
0.0194305
0.0214213
0.0167566
0.0188604
0.0217908
0.0197405
0.0191419
0.0202558
0.0224854
0.0170404
0.0191697
0.0171999
0.0216032
0.0199762
0.0196108
0.0201025
0.020247
0.022029
0.0248565
0.0247391
0.0244215
0.0190722
0.0168347
0.0224413
0.0203112
0.0198987
0.0202844
0.0224552
0.0188992
0.0208655
0.0238256
0.0219018
0.0221457
0.0214319
0.0228268
0.0183221
0.0207984
0.0187273
0.0228704
0.0214427
0.0206389
0.0221975
0.0219939
0.0238967
0.0255007
0.0260432
0.0255744
0.0201981
0.0186587
0.0218092
0.0204764
0.0210401
0.0207833
0.0222168
0.0183205
0.0209357
0.0218957
0.0210342
0.0210077
0.0212279
0.0219955
0.0172273
0.0189799
0.0172178
0.0218811
0.0198943
0.0204323
0.0199086
0.0196384
0.0214012
0.0239404
0.0237476
0.0239782
0.0170682
0.0189091
0.0168779
0.0213165
0.019768
0.0197949
0.0195353
0.0196954
0.0212852
0.016597
0.0182447
0.0165213
0.0207287
0.0190204
0.0191927
0.0194409
0.0191095
0.0210288
0.0167488
0.0187093
0.016864
0.0211858
0.019491
0.0194916
0.0194941
0.0194684
0.0209153
0.0233383
0.0231299
0.0234238
0.0184944
0.0166852
0.0211661
0.0194
0.0185816
0.0189661
0.020282
0.0167168
0.0186298
0.0211393
0.0194846
0.0193651
0.0195261
0.0212219
0.016646
0.0184057
0.0168206
0.0202373
0.0188714
0.0184957
0.0193948
0.0192955
0.0210599
0.0233687
0.0233254
0.022945
0.0185261
0.0169432
0.0203827
0.0190159
0.0200961
0.0195719
0.0217665
0.0169581
0.018475
0.0216246
0.0194861
0.0199244
0.0189178
0.0203272
0.0181339
0.0201342
0.0180543
0.0224427
0.0211015
0.0206962
0.0202741
0.0209476
0.0222368
0.0231918
0.0240044
0.0240707
0.0192415
0.0171654
0.0220404
0.0203077
0.0204195
0.0204131
0.0217999
0.0184218
0.0199848
0.0217893
0.0205096
0.0208041
0.0204311
0.0219511
0.017007
0.0185829
0.0171007
0.0209805
0.01905
0.0195858
0.0201473
0.0194124
0.0213759
0.0237714
0.0233683
0.0233607
0.0191791
0.0223828
0.0203061
0.0200647
0.0217976
0.0173855
0.0192923
0.0229869
0.0208269
0.0210859
0.0202599
0.0223768
0.0187134
0.016751
0.021698
0.0197688
0.0203944
0.0201232
0.0225954
0.0250865
0.0251989
0.0246602
0.0189824
0.0214428
0.0198816
0.0200593
0.0221051
0.0188408
0.0221955
0.0200875
0.0196474
0.021325
0.0207624
0.0226228
0.0214416
0.0212314
0.0225566
0.0241302
0.0245975
0.0245814
0.0187942
0.0210743
0.0195277
0.0195827
0.0210471
0.0185995
0.0207648
0.0193042
0.0193229
0.0209746
0.0180952
0.0207407
0.0188953
0.0189397
0.0206372
0.0231514
0.0229112
0.02305
0.019777
0.0214073
0.0200438
0.0202856
0.0215795
0.0192335
0.021191
0.0201265
0.0200766
0.0215594
0.0183907
0.0211817
0.0192443
0.0188754
0.0205608
0.0232298
0.0228868
0.0230851
0.0194437
0.0227863
0.0206681
0.0207607
0.0229396
0.0209008
0.0241285
0.0221169
0.021585
0.0230852
0.0210419
0.0232466
0.0217167
0.0221606
0.024137
0.0260066
0.0265078
0.0260689
0.0187446
0.0224576
0.0199559
0.0194447
0.0210247
0.0194183
0.0225895
0.0203739
0.0208049
0.0229723
0.0197721
0.0212653
0.0200857
0.0210724
0.0230479
0.0250522
0.0253132
0.0243261
SCALARS SignedDistance double 1
LOOKUP_TABLE default
1.62272
1.60283
1.49808
1.44554
1.26601
1.29322
1.28245
1.3336
1.48719
1.43142
1.52409
1.47423
1.51348
1.22588
1.26319
1.24914
1.58288
1.62285
1.64972
1.28635
1.71708
1.70033
1.22551
1.47345
1.29961
1.25167
1.63801
1.56059
1.13913
1.24589
1.67625
1.21941
1.51406
1.26152
1.40209
1.42486
1.34753
1.45671
1.40959
1.21584
1.57844
1.64505
1.56477
1.38118
1.45832
1.32101
1.33498
1.48892
1.21442
1.23803
1.26876
1.4191
1.60002
1.2165
1.22964
1.58684
1.41608
1.43759
1.74729
1.75798
1.74268
1.73568
1.48587
1.66615
1.48702
1.67046
1.72979
1.25022
1.44428
1.59055
1.50845
1.41294
1.68032
1.68434
1.76143
1.63402
1.58442
1.34225
1.53276
1.27093
1.21071
1.44772
1.29047
1.31154
1.27758
1.31201
1.37792
1.23881
1.16828
1.19795
1.26264
1.64036
1.52952
1.57205
1.66373
1.53402
1.60244
1.54885
1.2409
1.40656
1.18037
1.11245
1.20326
1.13096
1.15454
1.41756
1.2545
1.70983
1.62967
1.36991
1.46288
1.54809
1.4863
1.44542
1.43033
1.33922
1.41548
1.48552
1.35243
1.36288
1.25145
1.41804
1.39438
1.36522
1.39086
1.43059
1.4292
1.46274
1.34332
1.41471
1.47208
1.37851
1.43554
1.37042
1.43499
1.49661
1.49275
1.21732
1.41773
1.54632
1.47004
1.36906
1.55438
1.65126
1.60574
1.5786
1.55102
1.19344
1.20787
1.28002
1.48231
1.3883
1.45925
1.41069
1.56175
1.4778
1.20258
1.13445
1.13494
1.58207
1.72172
1.64469
1.59402
1.50909
1.54799
1.44623
1.47593
1.53794
1.3619
1.4145
1.31881
1.41703
1.40001
1.48804
1.26508
1.31136
1.24782
1.49612
1.41768
1.42009
1.26145
1.25756
1.29011
1.23721
1.22457
1.21168
1.234
1.23609
1.23279
1.33896
1.26872
1.27907
1.52561
1.61056
1.33323
1.43067
1.59161
1.51176
1.50546
1.26202
1.21821
1.23058
1.20125
1.21012
1.20071
1.2292
1.59388
1.51116
1.52736
1.49989
1.50387
1.58164
1.34238
1.41989
1.3286
1.31809
1.31715
1.4141
1.68269
1.68784
1.66547
1.67575
1.74568
1.75579
1.76044
1.67035
1.66654
1.74037
1.74094
1.71355
1.66111
1.65979
1.41044
1.49757
1.41122
1.65999
1.57691
1.55786
1.54843
1.57315
1.64611
1.74113
1.75918
1.76984
1.74588
1.6762
1.65559
1.75136
1.76997
1.76475
1.69133
1.30115
1.37284
1.35814
1.3446
1.24447
1.45014
1.54418
1.54639
1.4964
1.47632
1.6101
1.54697
1.64867
1.35026
1.45169
1.40125
1.55896
1.47074
1.58342
1.65038
1.75126
1.70496
1.62452
1.60099
1.59584
1.63435
1.73254
1.73299
1.72784
1.68786
1.74969
1.54136
1.52281
1.57683
1.5609
1.65298
1.60998
1.67694
1.72982
1.7056
1.65823
1.48101
1.56894
1.28904
1.38411
1.49979
1.43895
1.405
1.2911
1.25939
1.20702
1.23243
1.23223
1.2156
1.21873
1.4466
1.39579
1.38321
1.37909
1.37976
1.45527
1.25392
1.30875
1.24302
1.24521
1.22438
1.29825
1.30039
1.30475
1.22976
1.27722
1.30103
1.3017
1.2826
1.42814
1.35515
1.26457
1.29285
1.3349
1.29251
1.24273
1.20843
1.21971
1.26753
1.2291
1.20579
1.21201
1.27058
1.21079
1.23088
1.23125
1.21389
1.22732
1.5555
1.49629
1.67299
1.62385
1.555
1.59262
1.59909
1.53907
1.62218
1.661
1.6622
1.6183
1.70167
1.68428
1.51706
1.54426
1.51912
1.58999
1.56893
1.54625
1.58884
1.57289
1.61298
1.65241
1.63582
1.63179
1.41333
1.47594
1.24191
1.32911
1.32222
1.32953
1.23084
1.25234
1.21224
1.12568
1.14932
1.14039
1.15926
1.17728
1.25234
1.17297
1.20799
1.14292
1.12532
1.19949
1.15858
1.14786
1.13094
1.15187
1.1057
1.15806
1.37533
1.30299
1.51646
1.44692
1.20095
1.32144
1.30885
1.65548
1.72921
1.65062
1.72955
1.74136
1.71404
1.61801
1.43987
1.45986
1.50448
1.34566
1.40129
1.28575
1.60648
1.50665
1.5686
1.51933
1.54028
1.42835
1.46282
1.45426
1.44154
1.47922
1.4738
1.51026
1.41934
1.4412
1.41857
1.38697
1.42127
1.45693
1.34553
1.37998
1.29318
1.49333
1.45085
1.46729
1.31167
1.30963
1.2577
1.39118
1.35472
1.38295
1.24743
1.30696
1.31722
1.44208
1.3854
1.4136
1.42664
1.42351
1.41399
1.41924
1.36415
1.41026
1.38733
1.32062
1.34459
1.40482
1.38258
1.39901
1.37464
1.39595
1.47021
1.46419
1.48981
1.4008
1.43455
1.38542
1.44862
1.44176
1.4294
1.41578
1.42058
1.41486
1.40103
1.43345
1.34598
1.36864
1.40071
1.3716
1.35975
1.48871
1.45138
1.39948
1.4248
1.45583
1.4056
1.36094
1.35722
1.43638
1.35748
1.37696
1.41579
1.43725
1.4721
1.42771
1.40274
1.34577
1.34862
1.33566
1.45943
1.46263
1.45267
1.44734
1.53195
1.49288
1.538
1.25221
1.32088
1.30813
1.30884
1.19581
1.42651
1.47405
1.50557
1.45776
1.43854
1.5653
1.50687
1.59918
1.28893
1.4068
1.35046
1.51008
1.43448
1.54085
1.48899
1.56155
1.51971
1.51634
1.55033
1.5593
1.59074
1.60802
1.64386
1.66563
1.63147
1.60947
1.52463
1.48513
1.54609
1.53192
1.60277
1.56987
1.61083
1.58411
1.58012
1.58764
1.20694
1.19893
1.1992
1.19862
1.23069
1.31198
1.23213
1.25804
1.25462
1.21355
1.30147
1.28321
1.3029
1.27947
1.23308
1.1725
1.21874
1.22974
1.49365
1.45099
1.47652
1.50984
1.52045
1.32229
1.34393
1.32616
1.37521
1.41663
1.46397
1.51306
1.4986
1.42103
1.37967
1.44312
1.41756
1.4762
1.32161
1.50535
1.41457
1.29704
1.31683
1.51432
1.6025
1.55349
1.50907
1.5129
1.48687
1.36568
1.42546
1.52507
1.57806
1.52349
1.54771
1.43571
1.37575
1.19068
1.28995
1.29052
1.19154
1.17334
1.1369
1.14869
1.1442
1.11581
1.21457
1.11808
1.16185
1.15281
1.1325
1.12974
1.1433
1.13014
1.50002
1.62277
1.56787
1.51507
1.53376
1.59255
1.70855
1.64486
1.69285
1.68581
1.62457
1.56224
1.59181
1.6784
1.72358
1.65531
1.69097
1.61146
