# vtk DataFile Version 4.2
vtk output
ASCII
DATASET POLYDATA
POINTS 642 double
-114.643 214.077 61.8571
121.329 216.283 60.2316
-104.212 -214.966 -3.12103
116.017 -221.431 -5.27507
2.32853 -144.496 275.237
0.0273098 172.785 248.635
-0.469618 -145.982 -275.26
-2.60311 139.164 -274.245
204.083 -0.454327 -193.726
216.55 3.6014 181.091
-194.068 -2.78526 -192.484
-214.458 22.5492 177.761
-197.073 142.144 126.918
-150.435 92.8603 253.08
-86.8635 248.531 160.429
90.8567 248.352 161.419
0.130305 252.992 58.9864
87.9527 171.509 -183.668
-75.9868 173.156 -180.192
-143.291 85.5144 -268.376
-167.207 103.887 -129.399
-193.185 -5.1454 23.9797
151.64 98.3092 252.69
206.567 145.485 127.396
-136.621 -82.1664 255.823
0.386426 -17.5169 311.65
-170.925 -108.315 -129.085
-172.003 -114.489 101.835
-1.40902 1.27652 -330.236
-147.245 -91.744 -269.353
177.68 108.938 -139.453
153.382 91.3686 -272.281
184.911 -117.946 100.943
145.995 -82.1292 261.198
75.3288 -204.32 146.732
-69.478 -201.013 146.257
2.68773 -273.405 -5.43628
-66.2795 -200.917 -158.135
74.8627 -208.987 -145.393
153.477 -91.4839 -272.196
167.257 -107.44 -122.205
206.291 -2.4647 23.0275
-160.517 185.697 95.9709
-159.479 203.06 140.764
-107.901 241.143 113.418
-200.985 51.3551 216.551
-192.691 124.183 185.316
-216.95 74.1509 160.509
-46.7813 219.931 218.587
-123.404 180.822 214.605
-85.4895 134.792 260.718
-43.0202 270.238 113.134
-61.7948 244.177 62.3625
48.6685 219.426 218.594
-0.0650396 262.009 169.229
66.9676 243.337 60.2468
44.0192 269.65 113.031
114.723 242.487 111.576
-15.6914 196.156 -50.7403
-83.0127 148.711 -68.9357
87.2587 157.131 -74.6708
21.2552 198.658 -49.3343
-51.2975 169.25 -227.538
-2.10563 178.823 -177.006
58.2784 168.85 -226.614
-132.868 143.072 -160.909
-155.708 155.794 -22.5962
-79.2646 120.917 -285.335
-113.582 148.83 -226.348
-191.645 56.6565 -157.456
-167.434 100.652 -202.483
-186.732 39.7885 -230.599
-177.506 130.646 58.4562
-201.055 -2.40572 -113.98
-196.771 66.3951 -74.7956
-204.974 78.7937 93.9355
-210.83 18.6812 120.104
167.192 204.854 142.642
169.706 189.221 93.8108
89.586 136.354 260.695
130.166 182.658 217.611
217.024 90.6379 150.378
198.418 132.846 186.804
199.022 47.7522 218.635
-87.2148 41.8743 290.05
-0.126665 75.8055 283.482
-188.924 -34.6729 217.896
-154.06 1.61466 267.123
2.33597 -85.8956 313.296
-79.1459 -51.7553 302.345
-70.7859 -120.31 274.639
-193.829 -50.3046 74.8941
-196.321 -46.6346 157.104
-192.33 -64.8542 -167.248
-185.516 -48.4221 -77.4211
-144.464 -172.06 47.7113
-169.41 -129.408 4.70354
-139.974 -172.694 -42.5946
-155.971 -1.20334 -285.96
-188.861 -46.0919 -230.804
-3.42154 80.4677 -318.544
-84.9073 49.6949 -321.472
-82.7726 -127.279 -286.293
-86.597 -49.4996 -319.037
-1.31345 -82.9273 -315.817
124.467 154.467 -228.789
88.7564 123.16 -284.571
164.276 161.061 -26.0231
144.336 146.379 -169.779
199.035 50.7201 -232.028
183.638 108.062 -205.564
201.625 65.3285 -169.577
154.498 -178.104 43.1987
138.459 -170.255 127.711
101.213 -219.785 68.6531
196.424 -39.0098 224.382
175.518 -96.8231 195.54
206.224 -49.661 157.569
38.8909 -175.884 221.365
112.282 -146.605 219.86
73.7136 -120.166 276.351
35.8843 -246.556 59.4924
58.5283 -258.399 -7.45855
-36.3978 -173.886 221.523
2.62396 -216.129 156.118
-49.3204 -255.568 -6.18229
-29.8322 -244.381 59.3582
-93.5321 -215.087 69.593
37.8924 -258.961 -73.6964
96.3981 -231.458 -71.1347
-85.7922 -224.689 -72.2892
-30.0353 -256.969 -73.6082
52.0537 -173.719 -234.561
1.51121 -230.741 -138.859
-57.9786 -175.751 -232.343
131.049 -162.18 -147.551
150.548 -182.097 -40.7407
84.6934 -124.705 -285.019
125.521 -156.063 -229.28
200.5 -62.2724 -178.219
184.294 -106.851 -209.395
199.509 -51.5925 -231.648
180.681 -137.781 2.55892
211.531 0.268866 -116.147
198.166 -48.2893 -68.4456
207.255 -59.8029 71.8249
221.183 10.4176 110.463
85.1607 -50.8653 304.576
158.159 -5.49075 273.505
91.1915 38.352 292.062
-130.859 -164.342 128.478
-106.51 -144.775 218.67
-168.189 -96.0389 190.75
-119.882 -157.606 -229.465
-134.269 -148.718 -157.756
-174.307 -107.811 -204.277
159.946 0.00767766 -282.866
88.8339 -52.6878 -318.025
88.4825 52.7906 -317.941
214.393 80.8216 90.6067
201.818 64.5271 -73.6
185.851 136.024 55.5425
-137.462 202.481 76.0197
-137.399 215.269 106.927
-112.359 229.146 86.502
-183.375 171.888 133.098
-162.174 194.77 124.352
-181.213 164.634 116.241
-101.051 249.647 132.797
-134.507 224.786 128.892
-126.558 229.91 150.566
-215.623 33.9673 193.101
-219.49 63.2512 182.696
-220.849 48.8389 170.518
-173.934 109.808 222.464
-198.775 86.3666 204.027
-177.952 71.6247 238.271
-207.032 111.586 141.749
-211.8 98.9421 167.814
-201.876 136.676 148.988
-23.9259 198.228 237.972
-65.842 181.862 239.764
-43.8038 155.765 253.693
-105.26 218.823 189.34
-86.7742 203.54 217.408
-67.2036 236.593 192.692
-118.942 114.163 260.755
-105.672 159.657 240.952
-139.097 137.597 236.68
-179.157 168.068 161.808
-161.299 154.28 203.032
-144.518 196.164 176.871
-84.0679 247.136 88.1203
-90.0744 230.969 62.039
-65.3627 266.873 133.246
-74.8858 259.404 114.34
-32.6108 251.235 61.0453
-52.2706 259.705 89.7988
-22.1245 264.671 89.2561
24.719 198.089 238.009
-0.0251051 223.117 219.946
46.6505 259.277 167.701
24.7806 244.83 196.467
70.4142 236.273 193.009
-24.4408 244.861 196.475
-45.5759 259.667 167.502
96.9095 230.922 59.0669
90.5153 247.183 87.055
119.885 230.548 85.5013
21.7279 264.632 88.7973
55.3782 258.966 89.0248
33.8916 250.907 59.325
106.347 250.553 132.483
79.8423 259.181 113.253
67.829 266.154 133.179
-24.3605 275.737 136.556
24.1912 275.478 136.707
-0.457594 272.534 113.943
-75.1571 221.265 36.0171
-101.022 205.763 35.0121
-15.1391 234.26 25.9427
-41.8936 231.753 32.6193
-81.8604 168.96 -162.132
-37.5583 183.08 -63.032
-51.1976 181.168 -148.583
102.365 208.485 28.4785
84.6157 218.531 30.0464
60.8009 181.172 -146.661
58.3743 176.273 -59.5924
94.5646 170.916 -157.897
46.002 231.512 30.3815
17.3757 234.662 24.6248
-28.8081 157.526 -251.293
-0.866203 169.211 -227.685
29.0258 157.747 -249.715
-47.6538 178.551 -177.77
-29.4027 173.074 -204.807
-66.6928 172.376 -203.715
77.4331 171.094 -207.327
30.2105 172.101 -206.244
53.2419 174.796 -180.301
2.04661 199.404 -47.7736
22.2303 186.684 -132.314
-22.7232 185.621 -134.18
-138.205 145.316 -38.2114
-133.935 183.609 39.3941
-106.082 160.481 -175.813
-118.9 149.846 -149.597
-154.22 140.252 -92.0493
-154.558 135.692 -113.988
-151.517 127.792 -139.344
-43.7237 131.515 -282.164
-66.3902 151.306 -256.937
-130.662 121.346 -249.766
-99.8692 138.502 -256.471
-112.271 105.121 -280.766
-83.1873 163.144 -228.676
-94.1577 164.38 -202.999
-194.52 30.7183 -177.342
-188.918 50.8879 -200.21
-192.267 17.6334 -212.918
-168.359 102.592 -167.488
-180.232 78.795 -185.161
-184.588 77.4809 -141.188
-169.314 63.739 -250.39
-178.881 74.0723 -217.944
-162.356 96.5161 -234.068
-124.936 148.781 -194.17
-144.841 126.908 -215.401
-149.793 127.617 -182.009
-151.976 173.236 51.5574
-145.252 116.071 -42.6257
-155.556 165.133 15.2538
-171.393 159.776 77.5641
-189.427 139.306 99.0798
-198.497 -2.01772 -147.746
-201.029 32.2451 -130.038
-182.297 41.6151 -34.8036
-197.128 33.9456 -106.524
-190.395 -18.8986 -78.7767
-196.031 55.0372 -113.634
-193.064 61.8651 -97.6155
-215.934 51.6509 155.211
-213.656 27.3185 160.6
-202.822 112.832 115.856
-210.595 79.9541 136.311
-207.639 10.0008 80.7601
-210.396 47.067 110.181
-203.69 40.3596 69.4526
-197.257 80.5766 -2.24063
-191.189 81.9934 30.2358
-194.275 105.138 73.6408
145.5 217.937 104.584
146.117 205.187 75.7248
132.168 230.264 152.339
141.647 227.277 127.447
190.303 168.725 113.088
170.893 198.077 121.607
192.415 174.969 134.112
46.0864 155.814 253.488
70.1404 181.603 240.46
143.851 142.968 238.565
111.256 161.73 243.117
121.541 118.941 261.414
92.233 203.226 218.859
111.215 218.942 191.346
216.111 43.4095 168.546
214.484 70.2636 183.718
213.013 22.1499 197.439
210.584 142.659 150.644
214.507 112.26 166.267
215.96 121.027 138.164
178.076 73.9631 237.835
199.669 95.6948 203.693
177.607 118.144 222.852
152.046 197.775 180.665
168.32 159.343 206.012
187.42 171.566 165.769
-50.2397 108.771 272.278
-0.0457398 128.02 265.612
-122.204 72.9579 275.998
-91.3918 90.0734 277.243
-0.296055 24.9273 301.561
-48.9338 55.3669 288.503
-44.587 10.3447 303.936
-205.142 -7.32508 195.542
-196.532 8.81475 218.306
-147.287 -41.7684 264.998
-173.451 -18.2768 245.789
-165.041 -58.2239 238.123
-176.732 29.3427 244.107
-156.151 49.4715 263.174
2.2737 -119.051 296.826
-31.9354 -104.731 296.704
-29.1256 -134.394 276.708
-37.5461 -35.6942 310.046
-33.2152 -70.242 309.051
1.6254 -55.2522 319.695
-105.376 -103.147 268.274
-76.2366 -87.7237 292.511
-110.557 -68.709 283.24
-122.311 22.0638 284.144
-118.049 -26.1054 289.265
-83.9325 -7.46542 303.593
-207.046 -13.4274 137.446
-205.838 -12.4284 171.24
-196.394 -20.0525 55.0318
-207.107 -16.9843 95.8321
-184.926 -78.4875 133.659
-198.969 -47.8347 114.041
-184.693 -85.1447 88.2848
-194.833 -39.3407 -179.469
-200.178 -34.2836 -135.124
-177.438 -87.4505 -107.617
-193.806 -55.5079 -132.124
-183.953 -86.1349 -155.064
-199.06 -24.6335 -103.556
-194.427 -27.2829 -33.5076
-126.924 -192.064 23.3054
-143.933 -173.169 3.02478
-123.329 -195.804 -21.6416
-171.6 -125.223 54.1058
-158.867 -150.163 28.0264
-159.099 -145.93 71.5272
-156.534 -138.062 -83.2973
-158.085 -150.494 -19.7901
-167.971 -121.242 -55.016
-189.902 -57.8278 8.99961
-178.083 -97.7206 -27.9486
-179.936 -95.8381 36.3321
-190.499 -2.34817 -235.449
-192.307 -24.0655 -212.91
-151.769 43.3699 -280.387
-174.464 19.9401 -258.621
-173.217 -69.5831 -250.826
-176.153 -23.7992 -258.887
-153.296 -46.1556 -279.927
-3.23406 113.007 -298.753
-45.9941 101.737 -306.623
-48.5282 27.2637 -330.216
-47.26 66.2548 -323.944
-2.38076 44.7185 -329.425
-83.6582 87.3416 -307.424
-116.653 69.8869 -299.266
-45.7595 -137.947 -282.644
-47.8752 -106.695 -304.931
-0.769083 -118.651 -297.889
-119.306 -73.4311 -298.952
-86.6011 -92.0714 -306.402
-116.005 -111.332 -281.933
-1.36541 -42.8875 -327.732
-48.0692 -66.6047 -320.797
-48.6898 -24.6923 -329.936
[...]
POINT_DATA 642
SCALARS Mean_Curvature double 1
LOOKUP_TABLE default
0.00745571
0.00734332
0.00693937
0.00878187
0.0199344
0.00248385
0.00632874
0.0059879
-0.00178894
0.0135848
0.000631382
0.0139446
0.0149569
0.00938547
0.0111561
0.0104861
0.00663452
0.00705939
0.0159346
0.0100195
-0.00302909
-0.00371721
0.00827554
0.0130455
0.00983085
0.00517048
0.00695633
0.00518827
0.00182314
0.0107208
-0.00424106
0.0117675
0.00729917
0.0108825
0.00664583
0.0065814
0.0283147
0.00423037
0.010121
0.0112581
-0.003177
-0.00125992
0.00627169
0.024825
0.00796014
0.0125982
0.00761547
0.0175895
0.0105934
0.00788733
0.00871979
0.0155267
0.00901635
0.00891031
0.00616519
0.00723669
0.0132136
0.0101681
0.00928884
-0.0143836
-0.0101201
0.0105636
0.0162384
0.0017823
0.0144269
0.0132203
0.0412129
0.0116556
0.0150126
0.00658539
0.0098108
0.0175636
-0.00509966
0.0129371
0.0719837
0.00540122
0.00347384
0.0188244
0.00768704
0.00717334
0.00904466
0.00309556
0.0107309
0.00645905
0.00482359
0.000826065
0.013919
0.0107472
0.0179245
0.0112965
0.0101488
0.00123482
0.00319057
0.00956819
-0.00765799
0.00931917
0.00653936
0.00428302
0.0132139
0.0167776
0.00816401
0.0123868
0.0126523
0.00850521
0.00509873
0.017895
0.0120112
0.0605966
0.00691235
0.020409
0.0173625
0.00692327
0.00720357
0.00603137
0.00785565
0.0150368
0.00631148
0.00318756
0.00443415
0.00729282
0.00817691
0.00313005
0.0137921
0.00456653
0.0110666
0.0147661
0.00204955
0.00875335
0.0133188
0.0118473
0.00916345
0.0143943
0.0122084
0.0075346
0.00985423
0.00176532
0.00681662
0.00824805
0.0182486
0.00785716
0.0261999
0.0206872
0.00873016
0.0134563
0.00165036
0.00608727
0.0114759
0.00996023
0.0109104
0.00427219
0.00566646
0.00816269
0.0104432
0.0196211
0.00160773
0.0143295
0.00599017
0.010577
0.00984873
0.00444288
0.0019346
-0.00356676
0.00792417
0.00576465
0.00978817
0.0275551
0.00487878
0.00173716
0.0221433
0.0159271
0.0173426
0.0245578
0.0275052
0.0366964
0.00764237
0.00722599
0.0109573
0.0068989
0.0205061
0.0231283
0.0111758
0.00803221
0.00148066
0.00795556
0.00901914
0.00938489
0.00945463
0.00830886
0.00894257
0.011161
0.00766694
0.0068241
0.0103461
0.00899615
0.0228888
0.00940484
0.00872243
0.00879139
0.00775096
0.0107817
0.00737656
0.00982043
0.0106814
0.00840268
0.0108806
0.0107022
0.00907337
0.00980673
0.0093757
0.00770425
0.00655181
0.00793344
0.0209325
0.0103157
0.019721
0.022762
0.0223348
0.00766328
0.0028493
0.00223851
0.00532801
0.00280497
0.00223266
-0.001381
0.0155336
0.00423568
0.00439659
0.0111906
-0.00628604
0.00799704
0.00153413
0.00683748
0.00795681
0.0128954
0.00724866
0.00731148
-0.000911224
0.0102521
0.00721895
-0.000197062
-0.00193992
0.00304969
0.00346618
0.00336182
-0.0136571
-0.00381529
0.0130785
0.00236742
0.00930242
0.060516
-0.00847346
0.00789876
0.0130669
0.0124013
0.0117135
0.0106442
0.018268
0.0113839
0.00450491
0.00838279
0.00663443
0.00468962
0.00544512
0.00896213
0.0123072
0.0136237
0.0159323
0.012634
0.0130656
0.010305
-0.0161551
-0.0206648
0.0504532
0.00919759
0.00605555
0.000157384
0.0158714
-0.0110333
-8.01187e-05
-0.0162952
0.0274494
-0.0206556
0.000310155
-0.00147873
0.00653141
-0.0011977
0.0101956
0.00459084
0.00259692
0.0391159
-0.0266123
0.0127398
0.00776613
0.00785874
0.0134634
0.0174887
0.00584378
0.0098677
0.0214554
0.000635127
0.0074502
0.0107364
0.0101713
0.0113838
0.00851746
0.00816191
0.00118512
0.0158063
0.0132238
0.0240358
0.017696
0.0186882
0.00723076
0.00806581
0.00961663
0.00808352
0.00998072
0.0124626
0.00219752
0.00131869
0.0120097
0.00747565
0.00409345
-0.000182599
0.00557577
0.0168308
0.00726388
0.00942943
0.0105795
0.00867888
0.00508143
0.0124212
0.0176428
0.00766991
0.00769244
0.00431843
0.00769744
0.0218702
0.011289
0.0110703
0.0105588
0.00723163
0.0108702
0.01312
0.00434986
0.00332122
0.000843594
0.0116207
0.00261432
0.00721376
0.00380134
0.00231676
0.0152311
-0.00115009
0.00591744
0.00569709
0.0338571
0.021409
0.00414563
0.00668839
0.00588387
0.00852138
0.0044436
0.00634968
0.00304509
0.00779736
0.00440718
0.00246114
0.00312494
0.000333556
0.0207418
0.00285265
0.00961135
0.00782495
0.0125141
0.00977015
0.00680404
0.00695313
0.0100172
0.0067792
0.0114051
0.00823816
0.0123449
0.011106
0.00787111
0.00887088
0.00624926
0.0105273
0.0125622
0.0115506
0.00627758
0.00681176
0.00784772
0.00899999
0.0125699
0.0114246
0.0102917
0.00421869
0.0153112
0.022836
0.0122318
0.0130026
0.0119396
-0.00370699
-0.0163143
0.00776199
-0.0300712
0.00244065
0.00395264
0.00640657
0.00683504
0.0152802
0.00390633
0.0155632
0.0191454
0.013367
0.00455392
0.0118972
0.00556357
0.0146091
0.0110808
0.0178544
0.00676506
0.00806059
0.00513448
0.00573424
0.00576316
0.00467257
0.00763376
0.00695486
0.00657391
0.0208442
0.00948255
0.00678232
0.0118925
0.011618
0.0125366
0.00416709
0.00610292
0.00368197
0.0107104
0.00664596
0.00927028
0.00526161
0.00676859
0.00511999
0.0106013
0.0105051
0.0105973
0.00442571
0.0073865
0.00504052
0.00308002
0.0104728
0.00650017
0.00643566
0.0182107
0.00703556
0.0130427
0.00746228
0.0101695
0.00632444
0.00556854
0.00432507
0.00760005
0.00611393
0.00999433
0.00254209
0.00338367
0.0127678
0.00763181
0.018763
0.00679838
0.00766972
0.00728807
0.00513034
0.00549777
0.0107192
0.00667508
0.00635639
0.00999846
0.0049421
0.00819702
0.0126838
0.010857
0.0044861
0.00434672
0.0101696
0.0111109
0.00584964
0.00412964
0.0116081
0.00958397
0.00463754
0.00838233
0.00872504
-0.00403816
-0.0132841
0.0209218
-0.0122006
0.0146007
0.0116564
0.013647
0.0126221
0.00767014
0.00737678
0.00363937
0.00637664
0.00570798
0.00560004
-0.00547701
0.00936996
0.0102434
0.0106083
0.00972944
0.0120157
0.0131211
0.0177708
0.00562574
0.018493
0.00668924
0.00226844
0.0140569
0.00296542
0.0125261
0.0258396
0.0169531
0.00929907
0.0236784
0.00700122
0.00804697
0.00657812
0.00973628
0.00895539
0.00364528
6.59068e-05
0.0148342
0.0118338
0.0269372
-0.0168903
0.0075455
-0.00548397
0.00801266
0.00240624
0.00834583
0.00719285
0.0024134
-0.000296735
0.0077443
0.00345375
0.000375426
-0.000524745
0.00928092
0.0111958
0.00902622
0.0109077
0.00175246
0.0132789
0.00532099
0.0084232
0.011211
0.0133998
0.00184427
0.00338964
-0.000654597
0.00673751
0.00952304
0.0148702
0.0100358
0.0153692
0.0101122
0.00585011
0.00599024
0.00584729
0.00596906
0.00996219
0.0104633
0.0114101
0.00742193
0.00439176
0.0116731
0.00341711
0.00668922
0.0118683
0.0100256
0.00508113
0.00953371
0.00464572
0.0128352
0.0110033
0.0209741
0.0106688
0.0113501
0.00566457
0.00350991
0.00344963
0.00765445
-0.0129448
0.0130571
0.0171786
0.0167214
0.0116889
0.0068811
0.0100449
0.00891187
0.0195082
0.0140773
0.0124254
0.00649817
0.00661917
0.0125029
0.00941742
0.00827819
0.004629
0.0105881
0.0145633
0.00516843
0.0144453
0.0132886
0.00638868
0.00894105
0.00794406
0.00556786
0.00803611
0.000391835
0.00244687
0.0104137
0.0117068
0.00368561
0.0100637
0.00835141
0.0148526
0.00858218
-0.00858219
-0.01956
0.00678637
0.0113627
0.0373359
-0.0211004
-0.0226039
0.0305575
0.0103202
SCALARS CoVolArea double 1
LOOKUP_TABLE default
826.201
882.002
997.678
919.242
860.58
1507.6
1305.24
1395.23
1118.61
706.778
1012.39
536.122
747.946
1558.14
1442.53
1532.47
1244.8
894.289
738.343
1505.63
2174.56
2829.03
1739.12
761.416
1427.9
1868.43
1535.47
1574.11
2228.55
1570.81
2189.38
1463.07
1592.15
1385.4
1638.03
1643.14
707.366
1967.56
1848.05
1482.54
2615.38
2938.75
1146.21
1113.92
900.619
1318.04
1647.28
630.088
1506.5
1784.45
1722.63
901.493
1002.72
1599.04
1616.21
1152.1
982.144
919.793
2067.78
5150.91
3321.8
2793.66
1094.27
1864.86
1190.98
883.847
886.972
1404.02
1138.3
1110.12
1033.69
1084.59
3021.45
1022.81
1305.07
1656.46
1289.6
1237.97
1092.1
1731.83
1716.77
1126.88
1489.29
1604.27
1914.18
2785.44
1216.86
1622.93
1239.52
1677.55
1451.53
1872.96
1246.63
913.873
2543.46
1182.7
1599.57
1723.97
1659.13
1110.89
1831.37
1721.44
1424.1
1839.52
2012.11
1105.04
1484.44
1719.58
970.521
1167.73
930.536
1001.54
1293.19
1727.41
1434.25
1092.22
1420.59
1322.64
1492.93
1531.97
1561.43
1625.32
1079.93
1464.93
1544.83
1028.24
1602.58
1383.62
1183.32
1131
1316.69
1127.63
1741.6
2165.29
1467.14
2240.44
1279.03
1538.06
1171.19
774.552
695.962
1154.11
1417.64
1190.02
2595.6
1725.86
1371.92
1680.01
1580.1
1966.04
1686.05
1412.11
1254.96
1094.46
1812.04
872.132
1973.27
1884.52
1873.56
1502.86
1141.47
3326.98
1094.77
1005.07
948.695
829.167
807.07
863.606
926.545
829.175
1377.09
877.535
902.673
465.145
1680.85
1396.22
1408.36
789.368
1063.73
1071.1
1523.95
1653.51
1916.19
1710.61
1578.75
1484.71
1495.59
1614.04
1718.76
1638.19
1991.75
1883.47
960.006
915.038
1091.93
839.889
1041.23
913.379
1081.57
1580.91
1531.22
1581.5
1566.48
1573.29
1520.11
1508.84
942.045
1019.07
948.019
1142.9
1030.55
1141.87
1019.34
909.643
1182.8
1337.13
1379.96
1114.58
2799.18
2726.34
1684.29
1980.35
2346.27
3811.91
1601.74
2371.45
2220.84
2313.52
3597.61
1892.53
2370.01
1727.23
1461.47
1367.92
1626.37
1137.36
1246.97
822.626
872.851
1353.01
1498
2147.87
2481.69
2112.54
3708.68
1674.81
789.275
2589.62
1384.11
1222.97
955.514
1470.95
1276.8
1382.2
1273.8
1405.44
987.217
853.031
1246.96
1013.98
947.38
1155.59
1039.67
1120.92
1302.84
995.639
1243.94
1019.53
1224.36
1118.44
1082.55
4800.39
1989.28
1301.75
1111.12
1439.04
1097.6
4120.05
1688.1
2339.96
736.581
2342.15
861.074
902.06
1120.86
1088.22
1392.65
1355.94
2759.2
2830.53
2274.02
1557.52
984.173
1068.82
1477.61
931.435
898.628
884.936
929.208
1998.97
1710.38
1629.88
1553.53
1500.42
1624.22
1748.97
1250.84
1343.08
1150.02
1006.59
1086.03
711.645
1687.68
1513.06
1657.71
1867.66
1837.08
1589.72
2354.71
2481.17
1666.95
1788.42
2346.9
2300.07
2006.88
968.183
1367.02
1536.91
1433.7
1306.96
1469.72
1606.25
1175.53
1460.96
1304.78
1714.01
1467.92
1346.28
1320.62
1527.27
1529.13
1911.45
1788.08
1948.84
1405.59
998.877
1801.18
1332.04
1470.42
1484.13
1706.44
1221.9
1046.71
2087.65
1306.1
1065.49
1069.83
1855.52
1244.53
1267.99
1281.66
1477.27
1219.27
1302.61
1983.85
1504.24
1846.13
2821.96
2704.73
2181.19
1101.61
964.861
1657.84
1378.26
1360.94
1400.04
1720.52
1751.24
1570.2
1975.24
1633.69
1910.36
1474.65
1655.28
1542.39
1735.24
1776.72
1735.57
1578.79
1432.28
2067.3
1862.38
2067.8
1909.72
2006.21
1944.76
1398.95
1754.65
789.438
946.351
1348.83
1249.32
1428.85
2240.06
4258.56
893.602
1939.62
1340.48
2461.92
826.946
1055.88
846.896
1270.99
1294.43
935.845
1299.83
1085.78
796.009
975.166
948.55
997.863
1215.51
1214.84
1365.41
1297.61
1732.53
1446.46
1430.11
1419.8
1412.37
1676.74
874.05
988.119
899.27
1318.63
1098.21
1200.17
1485.91
1297.55
1668.82
1203.4
1506.1
1272.26
1696.66
1517.26
1580.95
1425.82
1419.18
1410.94
1876.99
1653.29
1888.1
1378.99
1132.64
1700.85
1537.25
825.855
1212.17
1008.05
1221.63
1355.31
1667.33
1483.07
1582.81
1447.4
1650.58
1141.97
1323.5
1295.68
991.878
1153.38
769.6
1401.35
1489.42
1656.57
1853.3
1839.79
1649.43
1141.83
1096.25
1062.27
1098.14
1464.52
1093.04
1343.19
1189.41
1189.92
1418.76
1142.53
1800.78
1065.12
1015.38
1351.99
2103.62
1396.49
2005.71
2884.26
1997.59
1325.28
2592.85
1782.59
1278.79
1375.38
1365.52
1247.67
1147.31
2029.27
1785.06
2030.95
2007.32
2436.59
1570.59
1373.6
1446.29
1374.1
1422.2
1309.9
1500.18
1148.14
723.831
1026.73
1356.99
562.631
1572.07
1314.79
829.809
1251.29
1482.68
1100.4
1390.43
1164.7
2059.7
1139.65
1215.29
1546.38
1566.27
1047.46
2082.59
1206.37
2497.33
1548.88
2857.25
1343.43
1234.64
1541.07
1465.34
1437.08
1424.99
1946
2662.67
2679.81
1980.59
1437.22
1536.7
1619.31
1464.26
1783.19
1321.68
1887.58
1592.58
1309.91
1418.12
2442.15
2156.97
2453.81
1869.27
1841.44
1631.55
1868.68
1875.72
1257.51
1680.98
1390.91
1355.77
1643.22
1405.88
1349.64
1273.66
1391.11
1647.25
999.406
1506.48
1107.67
1097.16
1327.59
1767.53
1509.2
1684.97
1281.96
1403.67
989.555
1301.24
1416.91
1581.7
1658.01
2116.43
1962.71
2304.74
904.573
1263.94
950.328
775.158
1010.39
1345.89
1096.62
1109.16
1422.16
1704.41
1648.03
1635.3
1696.95
1827.64
2153.01
1931.22
1591.14
1610.16
1868.2
1591.22
1550.2
1851.03
2119.26
2168.21
2293.24
2172.36
1476.04
2414.06
1284.61
1045.92
1013.98
1262.8
2777.66
929.417
1696.91
3541.99
1099.49
1156.53
1230.67
1930.23
5293.7
1889.83
3414.45
1703.44
SCALARS SignedDistance double 1
LOOKUP_TABLE default
114.203
112.589
103.154
98.3197
81.5474
83.5199
82.4932
87.5571
102.693
101.19
106.677
108.897
109.468
75.8859
83.3217
81.0487
112.1
112.342
118.542
82.3836
123.902
120.946
75.6181
105.102
84.274
79.2098
123.879
109.593
70.3177
78.3704
116.461
74.9964
106.209
80.4822
92.9097
95.28
91.8436
113.106
101.309
75.0792
116.312
118.622
110.154
101.661
101.494
87.7035
91.6596
110.542
74.3383
76.9818
79.8995
100.977
113.23
74.4838
78.0812
111.858
100.23
99.8979
145.877
142.118
144.003
145.957
109.883
122.94
109.51
120.023
155.29
78.5566
103.236
111.695
106.591
100.179
119.293
125.467
154.745
116.715
110.52
95.6649
107.326
80.5029
74.295
101.692
84.7427
86.4139
81.9431
82.5797
95.2797
78.0938
71.724
73.9061
79.7683
118.482
106.881
110.82
130.043
107.38
112.153
107.312
78.2735
101.116
71.788
67.3769
74.6694
68.7562
71.227
100.864
80.0654
158.688
112.052
97.2273
104.806
108.027
101.581
97.1958
95.4688
91.1622
95.9074
102.876
89.5407
90.6812
78.9228
95.9738
94.0402
91.5209
92.7866
97.586
97.8331
98.6265
89.797
95.0275
100.258
93.7921
100.151
91.2797
102.197
117.729
101.967
76.3502
102.782
106.805
106.889
97.7997
108.451
121.972
129.36
109.914
110.5
74.112
74.8082
82.1358
100.867
93.3115
102.702
101.119
118.922
106.212
74.5156
71.49
71.1153
111.174
145.069
116.328
112.896
105.171
108.655
106.521
104.393
108.079
97.1514
100.921
93.0192
103.295
106.091
111.37
80.3868
87.4303
78.3791
108.333
107.333
105.2
78.2568
78.5738
82.1283
77.0949
75.3574
74.7224
76.0878
76.4525
76.2724
92.3988
80.4304
82.6439
107.237
113.566
95.8773
100.091
113.294
106.143
106.11
78.2491
74.5253
78.1224
74.023
74.5313
74.0539
78.1512
112.659
105.725
106.693
104.735
105.094
111.672
94.698
99.2217
94.9428
94.8101
94.4827
99.9731
118.255
118.739
120.271
119.204
121.874
147.839
135.331
118.746
117.931
130.749
141.685
118.342
116.676
120.109
98.4034
109.88
98.288
122.626
113.947
113.315
111.971
112.993
115.673
145.464
142.887
144.874
147.845
120.537
117.345
122.356
157.182
142.891
125.96
84.3079
93.4479
90.4627
88.904
78.0536
105.243
110.429
107.11
105.308
104.808
113.113
108.178
118.33
90.4308
103.428
99.0285
111.743
104.883
113.502
120.304
140.469
138.84
115.766
113.453
112.014
121.239
137.503
128.199
134.426
129.476
136.721
111.168
110.479
111.758
109.508
119.266
112.264
119.963
148.169
129.379
119.85
102.906
110.234
87.5689
97.715
104.691
100.868
101.354
81.9601
78.7535
73.5634
76.4654
75.6437
74.423
75.2906
101.004
101.079
97.5468
100.703
98.9101
105.652
78.7683
86.5676
78.2027
79.0176
75.6455
87.2699
81.9178
82.0074
75.6898
81.3761
82.3369
83.0877
81.9119
103.446
93.6535
80.9202
83.8553
88.8627
83.37
77.3781
75.5568
75.3153
80.5356
77.9294
75.3046
77.0631
80.8889
74.713
77.0987
76.6819
75.4824
77.0399
107.277
105.716
120.838
117.29
108.628
113.475
113.042
107.458
116.994
126.453
117.117
114.046
129.043
129.422
104.345
106.597
104.584
112.824
109.051
107.297
121.97
109.486
119.1
116.558
114.822
114.951
102.817
104.867
78.5319
88.6815
87.5415
89.7695
78.4765
78.4415
75.4944
70.2783
69.8627
69.4646
70.9878
72.3569
79.6882
72.7524
74.9003
69.5075
68.6211
74.2568
70.1836
71.1497
69.9871
71.0115
67.5461
70.7896
94.2023
83.8723
109.547
106.41
73.6991
86.5327
84.9018
117.415
138.091
117.519
131.671
147.401
116.7
110.657
101.693
103.556
104.573
92.021
99.1818
82.7669
110.934
106.269
108.791
108.899
109.071
101.619
99.2982
97.9625
97.5355
101.62
100.495
104.367
94.7406
96.8827
94.2782
98.5487
99.8922
101.407
90.805
95.5464
84.4534
101.541
98.9744
100.032
86.8182
85.3797
80.1974
92.4281
89.7835
91.8121
78.7986
85.0667
86.304
98.0698
93.0517
95.0638
96.8883
96.4319
95.3063
95.4109
92.3215
94.9486
93.3118
87.619
89.3638
93.2257
92.4942
93.5934
91.4331
92.6789
101.228
100.279
102.08
94.5778
97.1394
94.022
97.8366
97.3813
96.4407
95.995
96.7417
96.2056
94.2657
96.9134
91.5187
91.8821
93.1351
91.4376
89.8287
102.071
99.1994
93.316
96.448
98.7717
95.3901
92.9743
91.0794
99.5209
91.2826
93.1218
107.222
113.655
117.464
111.352
99.3393
91.4269
89.4174
88.0027
99.6694
99.6396
111.767
97.8523
106.043
102.11
116.537
79.5551
86.7276
85.1763
85.7505
73.6773
101.896
117.25
104.762
104.982
101.721
107.412
107.014
107.853
83.1769
103.259
93.7542
113.231
105.066
109.285
101.799
108.543
104.46
104.399
108.833
107.279
112.659
121.121
125.669
128.424
113.306
120.722
106.858
102.561
108.82
107.149
113.108
111.556
114.011
113.102
112.209
112.827
75.0548
74.0424
73.7958
74.6614
77.4361
87.0495
76.6939
79.7635
80.5758
75.9792
81.7944
81.1069
82.9462
81.5837
75.965
71.7769
75.4923
78.0954
102.808
97.6651
100.426
103.581
105.301
86.6449
88.6112
86.9796
92.6716
95.2792
104.685
105.304
106.103
99.7894
93.5273
98.4196
96.6762
101.893
87.3756
110.179
101.807
84.0339
86.488
104.204
120.464
115.435
106.493
117.49
105.767
96.3865
102.583
108.587
111.62
109.177
110.196
104.954
97.1444
73.8835
83.0191
82.9786
73.8759
72.4464
69.6314
71.1874
70.8879
67.5969
75.376
67.5895
71.9985
70.6684
69.5367
68.9902
69.4643
69.0099
103.161
113.355
111.611
106.732
107.596
113.408
127.873
121.116
126.131
136.025
118.044
109.812
113.197
138.945
141.599
122.955
138.627
114.395
