# vtk DataFile Version 4.2
vtk output
ASCII
DATASET POLYDATA
POINTS 642 double
-166.388 257.328 91.6799
152.103 242.784 78.2143
-188.977 -312.499 125.712
172.699 -307.041 130.131
-5.05851 -292.728 427.884
-7.34327 78.1324 370.409
1.50378 -166.063 -105.554
-3.12294 182.443 -244.844
286.995 32.131 -90.7603
228.384 -54.3966 270.77
-305.38 35.746 -93.7145
-252.727 -58.7996 272.527
-205.725 126.459 160.046
-145.324 24.0367 350.83
-101.355 227.911 204.059
85.1527 227.254 202.704
0.770692 292.477 70.5011
105.244 245.309 -112.583
-106.896 253.573 -116.169
-191.248 112.035 -168.849
-337.095 166.847 -69.6272
-306.455 -40.7358 50.2685
138.692 20.4069 341.869
197.581 103.721 160.594
-143.623 -217.319 381.46
-3.7027 -42.4136 432.197
-260.502 -200.415 1.56246
-255.636 -223.608 207.239
-4.99302 78.1778 -233.299
-179.611 -120.739 -144.186
311.363 160.931 -69.8819
185.874 99.6043 -175.62
236.431 -218.284 201.371
126.987 -211.617 374.146
92.6482 -367.222 323.179
-100.191 -370.947 327.534
-1.4921 -334.424 222.727
-185.883 -255.539 -36.6185
172.218 -255.278 -36.3322
166.944 -123.598 -137.103
246.589 -194.533 -3.26273
293.546 -35.6539 40.9667
-194.476 218.758 113.932
-155.645 215.007 182.655
-135.839 267.439 154.157
-209.399 -9.65686 320.265
-198.159 58.2695 279.121
-242.945 13.7468 242.754
-54.174 170.897 289.573
-107.747 140.396 289.259
-56.0141 56.6348 383.617
-83.4358 281.353 150.379
-90.1103 293.933 87.8263
41.0339 170.592 287.918
-1.41606 220.45 225.766
75.9425 293.869 82.8896
68.7092 281.501 151.524
117.082 261.319 152.054
-59.7 291.676 -13.4407
-173.734 240.289 -30.3509
163.101 230.235 -25.694
51.3921 292.059 -8.0617
-58.9016 232.74 -194.485
-4.47184 273.242 -127.036
48.7452 230.289 -193.089
-275.245 214.638 -81.4473
-289.741 199.594 -62.1456
-91.5262 149.885 -245.732
-172.265 194.766 -161.994
-348.018 127.578 -84.3634
-307.709 150.152 -138.237
-286.851 96.9864 -145.393
-311.018 151.171 -25.5901
-315.524 27.4438 -38.2588
-341.388 127.623 -68.0948
-272.6 64.2585 68.9725
-280.26 -75.0649 186.809
130.633 205.089 180.376
170.488 207.734 89.6037
42.9296 56.1146 375.316
97.3733 134.574 284.953
222.798 16.4188 241.108
186.426 53.8349 273.241
194.689 -14.3408 314.7
-57.5472 2.84621 418.841
-8.12374 22.0024 418.533
-215.261 -111.644 324.964
-164.593 -51.0863 369.652
-2.51436 -193.543 427.955
-74.4438 -138.881 422.827
-90.2097 -253.511 424.326
-293.531 -142.086 148.595
-266.232 -138.86 241.757
-291.515 -99.9663 -49.0399
-298.809 -112.799 35.6708
-232.987 -281.377 166.135
-281.056 -220.705 108.937
-237.031 -260.77 68.5284
-196.773 12.0342 -164.518
-248.336 -57.2657 -119.428
-4.87383 128.117 -262.931
-74.0685 125.126 -244.223
-177.498 -142.257 -126.108
-116.973 -34.9547 -190.61
11.8657 -0.881086 -152.201
162.824 186.108 -153.013
83.6332 147.075 -242.785
266.274 195.126 -56.689
253.997 212.905 -81.6143
271.7 91.8618 -139.383
287.24 146.111 -131.493
324.746 114.17 -82.6735
214.945 -272.913 166.955
165.849 -299.916 276.463
122.926 -343.762 251.988
200.075 -101.307 319.847
193.36 -214.024 306.906
246.977 -138.081 232.916
42.4232 -341.175 397.341
119.069 -289.034 378.47
76.2056 -253.637 421.059
46.7919 -379.924 290.327
108.034 -330.588 166.493
-52.332 -345.295 402.526
-5.39416 -401.999 344.662
-122.995 -328.784 177.977
-57.3551 -380.94 296.203
-133.712 -349.701 255.557
148.354 -283.742 62.3604
163.6 -289.275 29.7866
-178.389 -292.823 35.0391
-146.985 -277.45 61.7732
144.145 -204.668 -77.1452
2.83477 -203.65 -86.4938
-146.064 -201.705 -75.4831
193.269 -243.016 -29.2939
222.786 -253.585 62.3255
156.947 -143.919 -128.71
162.91 -201.418 -97.7237
279.752 -96.9264 -46.2449
221.414 -162.904 -82.5087
243.01 -56.5805 -112.742
259.949 -217.328 106.615
300.071 17.5298 -30.2365
288.677 -103.64 18.4666
265.612 -142.135 154.658
257.494 -74.8151 180.233
61.8426 -138.294 420.696
155.098 -52.7199 364.292
44.3289 1.20892 410.589
-183.145 -305.314 283.464
-134.784 -291.706 384.079
-212.952 -216.717 317.843
-177.026 -203.551 -101.582
-202.152 -247.8 -31.3054
-231.425 -164.752 -86.3274
193.473 19.2308 -153.689
95.1835 -44.1717 -195.337
65.8329 131.137 -244.355
255.12 49.1466 64.1609
315.174 109.175 -68.4751
284.378 148.733 -26.2286
-184.118 238.728 103.902
-164.971 248.581 143.567
-148.957 269.684 130.239
-170.553 183.859 172.224
-173.455 225.964 154.932
-195.634 194.326 119.676
-122.108 258.436 174.902
-150.172 244.175 168.373
-132.479 227.71 194.656
-232.635 -33.2982 297.678
-229.633 2.45744 283.253
-250.327 -21.5906 259.323
-180.935 40.5055 315.568
-205.544 24.2948 303.173
-184.176 8.0634 335.397
-232.183 52.0666 215.116
-221.84 37.7291 264.328
-203.921 84.2534 232.268
-26.8849 123.713 321.745
-50.1873 107.462 328.149
-33.5023 67.4963 381.584
-98.8257 189.37 254.215
-79.6077 162.21 290.491
-75.3256 196.356 259.193
-94.0817 40.9168 370.827
-86.142 91.4301 326.379
-128.921 68.9985 324.88
-168.224 135.277 225.077
-151.66 96.0693 282.515
-130.478 177.152 237.533
-121.42 285.263 130.598
-129.157 283.222 96.2297
-98.8907 265.555 172.941
-109.142 278.423 154.501
-66.4201 299.242 75.7129
-92.014 291.306 124.433
-53.8601 288.6 116.057
15.9237 125.05 321.438
-4.33283 169.897 290.243
53.5907 223.607 215.678
24.8423 194.866 265.059
61.1229 194.786 255.117
-34.5558 193.91 266.093
-65.8439 223.035 221.128
108.678 277.755 88.3117
103.018 280.81 128.035
130.261 261.616 127.588
47.7257 289.368 116.786
75.6865 290.888 122.449
57.9019 299.712 76.003
103.174 254.25 172.901
90.821 275.563 154.502
81.3051 264.918 172.528
-45.9062 257.336 176.164
41.2934 258.292 175.382
1.27119 276.503 149.069
-111.402 289.389 42.0328
-162.989 247.257 26.3526
-41.9768 297.907 34.6163
-76.5339 302.703 40.2084
-138.717 252.247 -67.9377
-95.3856 285.338 -13.6069
-79.4143 283.32 -69.0791
154.638 235.826 18.2252
100.002 286.664 38.4638
70.5662 277.72 -65.1012
89.1064 282.12 -7.69126
140.588 238.664 -72.5877
67.3506 301.677 42.0197
36.1759 301.448 35.413
-30.6713 211.639 -223.547
-3.55939 234.251 -199.02
22.9369 210.985 -223.37
-53.734 268.267 -124.228
-31.0922 254.869 -163.223
-83.8749 247.761 -160.209
73.5358 243.134 -157.034
22.163 253.581 -162.777
43.5294 265.495 -124.017
-3.45206 291.933 -15.5939
21.384 287.077 -75.8067
-31.8466 287.883 -76.4153
-248.73 223.745 -61.5751
-213.753 207.513 -13.86
-203.948 208.596 -78.0594
-245.517 224.165 -60.1213
-314.475 187.026 -68.2773
-283.38 209.875 -73.5094
-308.987 199.034 -77.2066
-46.5179 167.425 -247.668
-75.4233 197.43 -224.443
-189.063 153.187 -176.61
-119.425 175.548 -216.198
-128.834 136.794 -229.661
-103.529 218.322 -190.861
-142.172 224.472 -150.113
-333.342 97.1086 -93.1005
-321.942 114.858 -118.959
-303.165 71.5249 -122.425
-334.404 164.352 -97.8573
-335.212 135.598 -113.149
-353.824 141.86 -78.5851
-266.99 109.711 -157.196
-299.364 126.424 -142.864
-276.292 133.859 -155.432
-241.17 198.295 -126.877
-262.648 173.298 -145.203
-292.361 191.813 -113.775
-231.305 181.487 18.4948
-327.307 162.083 -53.6553
-307.062 173.601 -40.5541
-243.591 160.892 25.7103
-252.667 131.822 39.5832
-316.351 33.23 -64.9215
-340.482 103.909 -71.425
-319.451 70.3031 -34.1501
-334.708 99.8274 -63.0476
-311.023 2.00366 4.8825
-347.271 131.309 -74.5176
-347.913 139.094 -72.0481
-262.33 -23.6834 222.084
-267.08 -63.5367 234.661
-252.669 74.278 117.562
-255.377 20.648 189.448
-291.384 -67.0032 124.7
-272.227 -18.5783 156.938
-292.473 10.8882 46.2864
-330.161 136.724 -42.2385
-315.686 110.997 -23.5883
-301.802 118.826 -7.94995
142.919 241.845 139.415
165.209 224.704 82.966
111.007 221.977 192.016
129.105 239.228 164.104
180.244 171.263 105.198
148.992 220.874 150.527
150.801 163.184 177.163
17.653 68.2576 377.164
37.9043 110.379 324.757
120.553 67.2125 317.62
76.9324 92.1214 319.598
86.7452 39.7733 358.693
67.1214 159.033 286.795
85.005 184.815 250.85
226.807 -17.4054 257.78
212.156 1.78791 278.466
213.288 -31.7043 295.796
193.351 72.2525 233.522
207.018 36.4325 259.056
213.933 48.1329 216.874
171.438 2.67991 329.161
191.776 21.5872 295.883
168.708 37.1896 308.144
116.421 166.899 237.598
141.112 90.1007 279.05
153.384 119.552 230.739
-33.7972 40.2994 406.332
-8.44031 47.8685 400.659
-94.059 14.6243 388.567
-58.2668 27.8514 405.566
-8.08186 -3.77279 429.301
-35.1988 11.5095 423.169
-34.4974 -13.4356 430.885
-240.598 -76.7456 297.881
-216.631 -52.056 323.571
-156.134 -124.066 370.282
-192.306 -77.8554 349.939
-180.633 -164.451 346.032
-189.633 -29.7321 347.053
-158.193 -11.6369 362.059
-2.55888 -253.965 428.329
-55.4969 -235.911 429.052
-49.7141 -274.432 428.154
-35.4467 -81.7324 423.455
-48.4637 -164.407 427.043
-1.16463 -108.097 432.62
-111.947 -244.242 409.771
-82.7531 -221.465 420.505
-100.902 -195.439 403.694
-106.511 -24.4689 391.105
-108.687 -90.1828 396.993
-64.8474 -46.4203 421.217
-278.821 -103.506 212.521
-262.814 -95.5611 257.324
-296.404 -101.185 114.955
-292.544 -107.945 169.672
-260.744 -182.235 227.942
-286.243 -136.748 194.274
-278.183 -179.555 168.599
-299.784 -45.5456 -69.6063
-308.894 -52.515 -38.76
-281.614 -157.115 21.0816
-301.528 -104.042 -17.1575
-272.626 -145.844 -28.0713
-310.551 -64.5497 -3.40031
-308.817 -79.5688 46.2535
-213.475 -299.019 146.408
-241.421 -273.584 116.298
-215.486 -289.063 98.846
-274.631 -224.769 144.792
-262.081 -250.746 131.47
-246.266 -255.391 185.527
-251.942 -231.896 34.0781
-262.823 -243.59 90.803
-273.589 -214.761 64.7557
-296.582 -143.193 94.6016
-291.311 -180.758 85.8689
-295.374 -188.307 122.506
-268.614 32.1437 -131.881
-278.99 -12.058 -106.693
-205.353 85.6681 -164.177
-253.025 63.3998 -154.054
-208.724 -95.1127 -134.712
-228.622 -21.0978 -144.131
-182.425 -62.8398 -162.036
-3.7449 140.181 -267.054
-42.3743 133.754 -261.094
-32.2208 95.6305 -242.323
-35.3291 126.236 -256.15
-5.61341 114.938 -253.57
-85.4927 132.538 -248.077
-124.698 133.322 -227.502
-123.436 -157.381 -109.014
-129.075 -96.8024 -135.322
3.6302 -124.359 -100.612
-160.085 -81.7583 -167.733
-167.277 -90.7037 -166.365
-184.751 -134.216 -139.639
12.7979 71.7556 -227.493
-98.0593 -21.2728 -201.335
-47.8351 37.4808 -213.502
-125.433 77.2732 -195.479
[...]
POINT_DATA 642
SCALARS Mean_Curvature double 1
LOOKUP_TABLE default
0.0113389
0.0134706
0.0170974
0.00922696
0.00759166
0.00361695
0.0856817
0.00968676
0.00254755
0.00871584
0.00442519
0.00918629
-0.00219641
0.0040843
-0.00457526
0.00450362
-0.0045716
0.00373095
0.00193107
-0.0170288
0.0468737
0.0145554
0.00515651
0.000573725
0.0014063
0.0126031
0.00720926
0.00563692
0.0168168
-0.0143264
0.0518603
-0.0507275
0.00425801
0.00104938
0.0190028
0.013173
-0.00532083
-0.0874073
-0.172169
0.0106056
0.00911067
0.0152912
0.0203229
0.0105272
0.0173348
0.0102376
0.00802569
0.00582171
0.00988721
0.00715528
0.00855761
0.0131363
0.00275943
0.0120829
-0.000197073
0.00527078
0.0187822
0.0168195
0.00259312
-0.00383378
-0.00492415
0.00421015
0.00939015
0.00845204
0.00975074
0.0206067
0.00290131
0.0184697
0.00358051
0.0264475
0.0243291
0.00999503
0.0145874
-0.00113681
-0.00776579
-0.00247417
0.000679322
0.00227259
-0.000920677
0.00473776
0.0069192
0.00900471
0.00865545
0.00947781
0.0139708
0.0123978
0.00540659
0.0088084
0.00077139
0.0144324
0.0194425
0.00576592
0.00622653
0.0102793
0.000351696
0.0104513
0.0128784
0.00377988
0.000457706
0.00472958
0.0392827
-0.0050831
-0.0138776
-0.0461495
-0.0119121
0.000881117
0.020616
0.0065189
0.0272488
0.00813373
0.0180805
0.0581916
0.00776666
0.00565361
0.00511899
0.00767461
0.0106928
0.00816378
0.00852503
0.0133565
0.0232299
0.00703219
-0.0378814
0.0130452
0.0319756
-0.0467808
-0.00424231
0.00570445
-0.0134178
-0.056701
0.0402299
-0.00783714
-0.00682111
0.0262483
-0.00662949
0.00823077
0.0060143
-0.0285142
-0.0353326
0.0117138
0.0103566
0.010927
0.0158774
0.00610585
0.0157611
0.00262646
0.00252938
0.0116334
0.0117516
0.0105633
0.00787574
0.0123962
0.0149169
-0.0129398
0.0112909
0.00837812
-0.00254966
-0.0171578
-0.00507358
-0.00425181
-0.00645573
0.0108084
0.00971072
0.0162105
0.0168533
-0.00335246
0.0172517
-0.00314537
0.0174506
0.0159228
0.0130272
0.00683122
0.00756121
0.0082565
0.00792388
0.00947554
0.00949236
0.00293807
0.00755293
0.00405846
0.00283951
-0.00256016
0.0133492
0.0101968
0.0123657
0.0132615
0.00259566
-0.00308182
0.00323658
0.00029109
-0.000449827
0.00368756
0.0207371
0.00820154
0.0117675
0.0211056
0.011278
0.0187676
0.00114656
0.00598003
0.00447138
0.000864314
0.00838379
0.0114249
0.00528393
0.00263449
0.00296599
0.018456
0.0151298
0.00247315
0.0231284
0.0151344
0.0155823
0.0205205
0.0175372
-0.00135419
-0.000486799
0.00665397
0.00892695
0.00213477
0.00236365
0.0197235
0.00711031
0.0043483
0.0104773
-0.000195355
0.0114741
0.00637139
0.00467323
0.00202337
0.0191457
0.00891384
0.0106104
0.00831141
0.0125855
0.00419488
0.00606912
0.0102024
0.00829983
0.00664328
0.00410863
-0.000953329
0.00802529
0.00699001
0.0674294
-0.0120274
-0.0196918
-0.0413027
0.00155898
0.0260607
0.0456545
0.00579243
0.010517
0.00850993
0.00647698
0.0448553
0.00893676
0.00904847
0.0126992
0.00633767
0.0122824
0.0205058
0.0329368
0.071375
0.0111989
0.014331
0.014454
0.0126399
0.0125991
0.0159532
0.00032992
0.00986029
0.0110249
-7.84551e-05
-0.00513369
0.0102046
0.0452904
-0.00640308
0.0160704
0.00502953
0.0519427
0.0222948
0.00486631
0.00477031
0.0045674
0.00471039
0.00157524
-0.000510996
-0.00358324
0.026436
0.00706742
0.00461479
0.016282
0.0109427
0.00977356
0.0170323
-0.00272504
0.0122583
-0.00368518
0.0114881
-0.00114316
0.00429646
-0.00285085
0.00201457
0.00951505
0.00771712
0.00657552
0.00828008
0.0103013
0.00574394
0.0110828
0.00475129
0.00815707
0.00946347
0.00739643
0.00489049
0.000999133
0.00072782
0.016881
0.00966551
0.00729708
0.0121793
0.0151701
0.0189666
0.0172564
0.0100284
0.00624951
0.00250725
0.00721542
-0.00315213
0.0102581
0.00723443
0.000408542
0.00738713
0.0063849
-0.00553229
0.00270892
0.0118261
0.00655309
0.00943871
-0.00510745
-8.78866e-05
-0.000904698
0.0110522
0.00539718
0.00831071
0.0021373
0.0114484
0.00309365
0.0114881
-0.00255225
0.0110824
0.0105576
0.000355023
0.0135737
0.000347976
0.00649154
0.0111307
0.00798315
0.0110454
0.00653599
0.00882988
0.0115346
0.00493652
0.00703439
0.0100772
0.00684414
0.00348599
0.00767914
0.0192173
0.000739664
0.00482466
0.00108512
0.0102562
0.00257385
0.00427553
0.00577528
0.0297347
0.0477841
0.00538988
-0.00773914
0.00151681
0.0698622
-0.0059062
0.00420121
-0.00645181
-0.00843009
-0.0901861
0.0771003
-0.17788
-0.0281892
0.0293358
-0.0185545
-0.00640552
0.00364348
0.00900462
0.0087506
0.00726833
0.00767524
0.00820147
-0.0423197
0.00403934
-0.00478057
-0.00646932
0.00947481
0.0508979
0.0238576
-0.00502995
0.0337458
-0.011861
0.0114597
0.0180032
0.0102536
0.0181762
0.0203201
0.0131718
0.0814919
0.0180962
0.0264171
0.0189262
0.0145556
0.0137981
0.00582569
0.00972192
0.00680953
0.00323542
0.0107262
0.00622237
0.0105491
0.00861108
0.0103784
0.00610194
0.00654345
0.00158038
0.00843247
0.000152287
-0.00104193
0.00433018
0.00434958
0.00457147
0.0140682
0.0159268
0.0112129
0.0101391
0.0117511
0.00675133
0.00536465
0.0200206
0.00793242
0.00660486
0.00697693
0.00468587
0.0174088
0.0127357
0.0298382
0.00973476
0.00246275
0.0204313
0.00135958
0.0184087
0.0148385
0.0174912
0.0130564
0.00686276
0.0145664
0.0113292
0.0308788
0.023457
0.00804224
-0.00236442
0.00950189
0.00284017
0.0143996
0.0178176
0.0343602
0.0331156
0.0345057
-0.0107927
-0.035441
-0.00339974
-0.00616406
0.0762882
0.155468
-0.15017
-0.0174639
0.0255889
-0.151566
-0.00726099
0.0721689
-0.0109142
0.0462461
-0.00270294
-0.00596665
-0.0209557
-0.00155513
0.0125736
-0.0115744
-0.0145966
-0.00524616
-0.0115218
0.0140218
-0.008429
0.00371758
0.0030369
0.00232921
0.00500985
0.0853335
0.0285201
0.00564296
0.00729628
0.0109561
0.00591146
0.00234948
0.0385974
0.0169256
0.132542
0.107072
0.114243
0.0118823
0.00826393
0.00861841
0.00750965
0.00423062
0.00507143
-0.00111208
0.0025968
0.0110474
0.0307435
0.0104881
0.00791302
0.00981119
0.00538184
0.0117058
0.0127083
0.00968268
0.00483912
0.00996442
0.0106409
0.00679595
0.0185716
0.0145795
-0.00697625
0.00481665
0.00256134
0.00179699
0.017437
0.00115451
0.00834923
-0.000963299
0.0112551
-0.00483308
0.0105133
0.010831
-0.00420506
0.00222057
0.00479639
0.00286244
0.0105677
0.00701179
0.0111544
0.00720727
0.00413507
0.0156088
0.0168401
0.0189276
0.00836024
0.000720609
0.0032036
0.00522403
-0.00117115
0.00537342
0.00979482
0.00880404
0.00781417
0.00441597
0.0138867
0.0119876
0.0220484
0.0096168
0.0093918
0.00523277
0.00356573
0.00416915
0.00123363
0.0125119
0.00792403
0.00533246
0.00614875
-0.00197979
-0.0667911
0.0601951
0.135585
-0.125162
0.00237083
0.00948535
0.00407524
0.0419291
-0.160738
0.007004
0.00819091
0.00363502
0.00498896
0.0080363
0.0548178
0.00645857
0.0123764
0.00247592
0.00417193
0.000456226
0.00816328
0.0120401
-0.00756187
0.106547
0.0348592
-0.146313
-0.0829059
0.0531465
0.0726674
0.100991
-0.016453
0.00362679
0.0083258
-0.00356258
-0.00773541
0.00401061
0.00246393
-0.000857265
0.00246634
0.00298911
0.0565132
-0.0144886
0.0419105
0.01483
-0.0147866
0.00475912
-0.00501344
0.0022101
0.0132451
0.00946333
0.00609134
0.0131572
0.00554368
SCALARS CoVolArea double 1
LOOKUP_TABLE default
2289.29
2234.68
1474.24
1668.72
1382.54
1531.84
2169.42
1670.29
1994.23
1327.86
2034.73
1208.67
6283.15
2214.73
1621
1507.31
2971.4
3241.14
3556.89
2290.76
674.177
3009.09
2218.16
5855.89
2751.86
1621.32
2391.63
2770.75
1409.23
1154.94
502.457
1360.58
2489.31
2907
1835.65
2039.38
5120.13
673.542
373.842
1657.25
2294.15
2184.79
1975.51
1949.18
806.37
1367.84
2428.5
1798.58
1835.46
2880.18
1804.76
1687.69
1391.35
1732.88
3540.65
1255.55
1341.08
787.165
2507.27
3498.7
3386.75
2519.26
2014.32
2381.04
1957.32
1602.69
2077.79
1606.36
3315.78
623.998
1550.8
1494.43
1729.58
2239.26
776.037
4964.2
2463.58
2134.02
2333.59
2077.21
2712.7
1485.46
2037.26
1200.05
1444.79
823.911
2587.02
2766.77
3412.31
3116.49
1187.07
2062.12
2255.46
1913.19
2546.12
2035.52
1412.48
1948.18
4641.57
2744.62
455.724
2498.31
1815.13
1323.02
13098.6
3979.93
1510.95
1434.41
1150.87
1278.52
1538.61
550.027
1852.94
2388.92
2035.04
2393.3
2197.05
1887.61
2088.4
1877.78
1032.38
1283.21
1196.82
2004.09
1448.16
1205.74
1333.67
2107.11
6132.76
852.454
677.815
7030.06
3049.1
8640.81
3245.98
1375.6
1796.03
956.412
493.384
1641.19
1816.53
2417.81
1369.05
1848.08
1917.9
2556.88
2752.2
3203.59
2059.45
1835.48
2398.73
2074.03
2176.01
364.628
1420.05
1994.27
4995.06
1431.13
2973.73
5341.35
1067.35
1580.52
2529.93
1044.8
1182.61
3170.43
1293.95
3824.17
934.196
904.408
1627.38
1421.5
1451.44
1529.01
2126.45
1333.28
1394.02
3629.95
1722.74
3374.99
2324.04
2193.96
1448.46
1905.14
1882.34
1554.14
2258.24
2833.8
3078.34
3606.04
3670.25
3217.78
1030.75
2214.63
1506.68
737.094
1746.25
1085.26
2837.1
2224.07
2184.3
2224.97
2103.2
1525.67
2233.84
2652.6
2406.2
1112.79
1406.95
2557.51
963.744
1443.01
885.16
727.278
1210.06
3291.4
2832.81
2838.98
3140.7
3716.48
2574.38
1682.18
3760.28
3233.5
2964.9
3349.17
2760.13
3429.11
3336.31
3846.84
1457.2
2393.83
1961.96
2030.2
1897.92
2503.97
2155.68
2306.32
2405.47
2108.04
2682.85
3274.52
3040.4
2949.95
1865.17
3880.45
3989.97
1560.28
575.042
380.309
950.187
1946.8
2122.15
3629.29
2858.5
1720.4
2508.38
3700.23
1596.28
1206.27
2056.51
1488.45
972.09
529.33
1550.83
897.867
2051.21
3227.98
2675.04
1984.51
3426.85
743.001
1793.64
2787.33
5350.99
2207.32
951.062
2423.7
958.394
2330.38
191.015
405.918
2372.32
1717.36
5536.71
3663.03
3563.86
5018.95
5550.86
832.641
2800.49
2684.93
1124.56
1980.2
1629.45
894.085
5078.53
2039.88
4062.59
1516.24
2250.74
2854.03
2893.04
2507.46
1929.69
1941.24
1475.95
1218.84
1221.65
3016.04
1288.14
2693.17
1305.88
1236.06
1946.93
3069.14
3169.69
3348.33
892.481
976.292
1919.1
1101.01
841.196
767.919
1364.71
1794.46
1722.03
4179.18
2447.3
2981.69
1498.6
1989.23
2213.48
2224.74
1656.85
2583.88
2984.18
2814.69
1234.64
1701.94
3481.32
2864.62
4367.97
2839.93
1681.36
1802.33
2572.83
1783.65
2587.53
1981.72
2471.58
2443.24
2137.46
2953.35
2116.35
2258.7
2544.29
2667
1968.44
1585.75
1690.99
1968.08
1541.32
2207.17
1861.44
1538.6
2180.36
2432.11
2287.82
1846.98
2510.33
2629.31
3700.86
2703.6
2426.26
3162.05
2605.33
1364.41
915.898
1921.3
684.893
877.524
567.512
2071.57
3563.64
8494.85
10382.1
932.641
1634.37
313.025
4341.62
5571.99
1703.26
5505.48
3635.48
3750.86
2097.29
1870.91
3170.5
2815.95
1400.49
3006.39
3535.2
2763.96
1635.28
823.688
462.105
570.307
1582.21
2482.69
1704.04
985.3
1388.04
1847.15
969.839
1110.46
447.914
1037.17
1287.04
2647.7
1798.66
2873.55
1902.92
2146.48
2206.19
2620.45
2117.39
1934.56
1327.63
1871.64
1883.46
1642.3
2339.48
1833.31
2354.42
2629.37
3130.46
2185.18
2248.29
2533.79
1715.26
1736.56
1548.6
2130.64
1947.78
2176.41
1349.81
1230.28
1576.21
2800.64
2333.75
2560.97
2031.41
1789.91
1243.62
1453.88
2449.79
1543.69
2826.37
1645.08
1826.74
1757.31
1912.24
2191.89
1957.95
1804.09
1485.66
1839.22
2383.25
2981.13
1596.28
2962.56
1499.28
1354.92
1278.21
1043.41
995.42
1713.99
833.092
1783
9782.82
1797.79
227.431
691.433
1661.31
1279.74
684.411
2123.02
1242.2
317.643
2835.42
10542.3
3676.63
7108.04
3717.71
2970.66
4485.36
972.493
1314.59
4610.19
3250.67
13133
8998.15
8912.16
1888.01
1932.15
430.712
1043.28
1699.13
1692.83
1659.32
3115.4
1126.88
916.584
358.623
380.869
522.242
165.196
2230.6
2028.99
2248.28
1890.69
1882.25
2008.4
2533.81
2075.21
1813.29
1083.83
1518.42
1823.56
1620.29
2140.83
1458.17
1410.95
1729.41
2205.36
1932.65
2335.64
1748.11
1631.06
1540.2
2558.67
1550.4
1959.04
2063.13
1510.38
3010.62
1871.64
3013.55
2248.68
3235.61
2110.87
1947.86
3480.13
1691.09
2519.88
2179.85
1334.96
1771.74
1166.24
2010.64
3552.68
983.225
1430.29
835.887
1366.15
2162.98
3989.88
2860.77
3278.9
2453.05
2106.34
2017.5
2311.65
2716.25
1797.77
1580.34
1410.03
2088.5
2341.42
2471.39
2662.61
2305.32
2349.23
2095.81
2643.16
2425.62
2842.62
1581.59
268.788
781.976
591.02
594.79
1870.49
1915.28
1963.94
1052.31
343.813
2391.3
1721.83
2240.8
2051.29
2112.04
959.311
1965.95
1441.62
2217.17
3105.41
3118.86
2422.23
2985.3
6694.97
1344.04
3668.15
804.3
1301.48
819.908
1768.57
381.953
635.622
2094.42
4782.49
4536.85
6485.99
2542.19
4352.89
4822.68
3713.11
5096.52
759.785
483.616
168.441
707.372
2031.01
2237.64
4945.17
2756.28
1366.66
764.701
3005.79
1172
3055.09
SCALARS SignedDistance double 1
LOOKUP_TABLE default
60.6189
72.0616
65.4239
59.2449
54.1866
67.8748
186.862
46.7863
57.6201
64.2037
56.4255
60.436
68.0083
63.5639
70.1498
70.1606
60.3531
57.4088
55.0192
72.6132
58.2896
64.3977
63.6535
68.4828
59.0957
59.1826
58.826
56.6995
86.5105
81.9688
61.5333
84.9533
59.7766
61.4889
48.9917
46.0657
112.858
76.0131
74.646
70.3924
62.4921
65.2551
75.2581
71.5688
55.2683
59.1418
62.5578
63.8684
62.8387
64.5955
62.186
60.6271
59.4167
61.3863
67.3773
59.1342
60.6198
58.1733
59.5194
66.9942
72.1789
59.7131
47.8251
53.1016
47.8948
63.4009
59.4959
54.3517
59.1284
62.364
46.9648
53.2876
68.7872
65.4653
63.2126
72.5654
64.4152
73.8418
76.0849
64.5806
65.0125
66.2027
63.4275
61.6198
57.4634
59.0276
58.1657
58.2099
56.7516
56.3453
56.795
62.039
59.7362
54.8696
65.8198
52.1727
55.0006
56.9944
64.6312
58.7364
66.343
65.6874
76.1198
106.634
151.73
65.9972
56.4749
61.9724
62.2639
55.8626
46.5469
66.3611
56.6228
54.9086
56.233
60.1155
59.9292
63.5049
44.6636
54.9301
59.537
68.8293
86.3929
41.6656
61.1854
82.7831
71.2056
58.366
75.8854
85.0109
90.1473
89.0955
78.478
192.541
89.0134
58.9389
57.5005
73.0423
77.592
56.1203
56.1611
58.7491
59.2404
72.1452
62.2223
66.3505
66.9602
57.5624
59.66
61.1142
51.6461
49.8886
55.9077
85.6371
61.3768
54.9934
64.2257
116.094
62.2606
82.4459
65.2117
70.3262
66.2841
57.7039
53.4997
72.2285
65.8615
75.087
59.0297
60.3434
69.5806
60.8119
62.0223
61.7197
61.2642
60.7366
59.7736
65.165
62.593
66.0204
77.382
75.921
64.6475
61.2007
61.0845
60.3088
63.7363
70.6495
67.4087
67.2027
68.6946
64.5064
52.8125
54.9146
61.8492
58.6181
62.2197
59.1148
60.0045
77.17
62.7656
70.324
62.0164
62.3655
61.9126
69.5489
57.8386
54.7956
58.4003
59.9811
58.6728
61.3179
60.3965
56.8515
61.0828
64.441
66.7105
60.7284
55.1322
63.7934
63.8977
57.4692
57.0734
55.2444
53.3524
72.4321
57.6716
53.9863
56.8519
65.3447
55.7816
64.2172
45.6682
47.9945
45.2926
52.0152
50.2645
49.7647
50.8399
51.2185
52.1552
59.827
54.756
55.5971
83.5203
66.3405
68.006
83.8574
55.9035
61.9814
58.4719
50.1834
45.4378
64.9364
47.9546
64.124
47.3806
51.8402
54.0238
50.3385
53.6202
41.4427
51.8008
66.1701
61.7319
53.114
59.9197
72.3883
60.5208
48.3885
71.366
59.3509
62.704
72.4671
73.5581
59.4876
63.1229
65.249
62.4904
70.9481
64.9836
64.881
64.1627
64.2447
64.557
64.909
66.4486
67.7827
71.0732
69.1786
70.0016
72.096
62.6985
76.8078
71.6612
63.5879
71.8783
70.7249
72.1275
65.4363
75.6126
66.7771
71.2437
65.7974
62.4811
63.0971
64.7659
63.7579
62.7827
67.6198
63.7072
68.1217
61.9982
62.4514
63.0927
65.9895
69.7424
70.2259
60.4194
61.7395
63.1516
59.1466
57.4149
57.6746
57.2437
59.3991
59.7875
61.2261
58.2732
61.2594
58.5085
61.3795
54.6651
55.386
54.4624
64.2392
56.9944
64.1222
58.4606
59.5859
60.1754
64.778
65.8278
61.7874
61.8975
60.8888
63.4409
64.3882
59.2092
58.6184
63.4267
53.7254
59.4621
63.1079
58.5897
63.5127
61.2597
65.7104
54.6237
55.3946
57.6289
56.1122
54.7167
55.5828
55.4837
55.0617
57.0395
63.6093
61.8738
67.0113
57.8075
57.1684
70.5156
62.1935
59.5208
60.0589
65.8873
62.6975
66.9912
77.3585
65.2558
67.6476
64.7617
62.2583
106.016
93.1437
175.21
86.187
87.3247
79.5241
90.564
125.776
121.691
85.9543
119.655
87.0354
47.3234
50.6802
62.4305
48.6106
75.2104
51.2202
79.2906
71.0827
71.6193
60.5793
62.0865
58.2429
74.049
75.0022
55.1309
53.5782
59.7124
58.9342
52.4226
60.9264
66.5922
50.3022
51.2037
68.8254
45.0678
54.1412
56.3045
55.5288
58.8477
59.0861
54.9149
57.7705
57.4754
53.3811
55.7096
62.1489
62.368
66.3077
58.8557
63.3825
64.2595
60.4638
61.176
59.5024
50.0452
47.9703
54.5354
49.6406
45.3116
45.4384
60.831
56.74
61.1286
56.6442
55.8246
55.0003
73.3955
79.9537
63.2244
62.8755
80.8172
75.4957
79.882
50.2726
41.2614
60.2664
40.316
43.7831
41.5033
55.1491
78.5148
76.1508
63.0246
85.0416
78.8265
88.1197
55.5749
68.5894
68.0934
69.968
72.7046
69.8354
92.6029
73.4512
91.5049
97.101
76.6491
88.3565
75.9361
78.6941
79.0925
79.2779
91.9592
77.4485
84.1267
107.939
111.656
181.34
138.195
77.5282
103.848
73.1188
76.0107
119.033
87.988
179.548
130.108
113.133
60.9158
58.692
75.0533
73.7048
58.8239
57.6287
55.7171
85.4822
77.7533
73.0944
73.4085
75.5935
80.5494
74.5519
55.6175
57.6033
58.299
58.8213
60.9391
64.4065
61.2245
64.769
57.6867
72.9088
60.691
57.0345
57.0767
61.4334
56.8032
56.3057
58.6339
64.0375
60.9346
62.4463
62.8377
69.0195
60.2162
67.8682
66.3177
66.1274
67.0229
63.3519
69.6346
66.1637
68.909
65.8217
68.5366
66.1858
59.2206
60.369
61.2505
58.1128
68.2065
60.8094
61.8976
60.5661
60.0416
61.9241
60.7824
58.3318
58.6989
61.7746
65.082
66.7784
65.4325
66.4316
54.7003
51.1751
52.4238
54.868
56.3228
47.409
58.9015
55.8626
44.0548
45.8438
57.4903
58.1622
59.9383
63.3872
57.1904
51.2372
55.0185
53.6324
86.766
75.8965
88.2
81.068
78.9526
66.9538
54.3827
57.5325
78.1206
76.227
56.9596
60.1672
58.3978
58.7666
56.4285
77.4439
56.5549
70.8805
58.146
60.3753
64.8046
58.6788
76.8382
80.058
133.598
126.245
80.2677
81.9049
66.9556
75.0035
61.9671
64.9416
76.9472
85.8196
121.6
79.5225
68.6484
71.3676
69.6292
68.5565
69.3011
66.2999
64.2926
65.6614
64.0881
71.3525
74.9118
75.0499
74.1887
65.6166
61.8979
70.0793
69.5537
72.2373
