# vtk DataFile Version 4.2
vtk output
ASCII
DATASET POLYDATA
POINTS 642 double
-170.934 262.892 91.4833
157.752 248.809 78.5923
-191.733 -318.694 124.596
176.065 -312.704 129.151
-4.89134 -293.542 434.588
-7.03826 83.9042 376.141
1.42181 -171.273 -111.771
-3.00848 185.438 -249.873
293.274 30.2914 -93.8093
235.774 -53.6811 273.832
-311.317 33.6135 -96.9208
-259.502 -57.7366 275.791
-212.79 130.205 162.894
-149.037 27.8665 356.631
-103.337 234.015 209.954
87.8459 232.966 208.512
0.596439 299.909 71.552
107.987 251.496 -114.76
-109.594 259.486 -118.258
-195.486 112.044 -176.783
-342.495 170.619 -67.9098
-314.038 -39.7296 52.0536
142.497 24.1822 347.807
204.556 108 163.24
-147.903 -216.569 387.484
-3.46635 -42.4557 439.486
-266.401 -203.519 -0.629539
-261.829 -226.047 209.341
-4.99629 73.6066 -240.834
-181.206 -123.704 -150.96
317.477 164.33 -67.6238
190.53 104.672 -181.008
243.055 -220.83 203.587
131.728 -211.279 380.195
95.8121 -371.698 324.729
-102.992 -375.282 329.147
-1.65423 -342.819 218.118
-180.729 -258.491 -38.4114
166.785 -258.618 -38.4986
169.772 -125.915 -143.595
252.877 -197.652 -5.10571
301.299 -34.9211 43.2782
-201.788 221.926 116.451
-161.557 218.349 187.582
-139.054 272.626 157.376
-214.779 -7.49954 324.925
-203.324 62.6992 283.057
-249.898 16.8213 245.264
-54.9562 175.911 295.566
-111.576 144.424 294.874
-58.843 61.55 388.92
-83.172 287.993 153.809
-91.7895 301.024 88.2543
42.4045 175.479 293.736
-1.29768 227.138 230.473
78.4614 300.631 83.4368
68.9269 288.1 154.926
121.065 266.418 155.245
-60.3046 298.964 -14.4703
-176.37 247.492 -30.8531
166.34 238.25 -26.0351
52.4469 299.189 -9.40345
-60.0037 237.397 -198.05
-4.29396 279.411 -129.495
50.2536 234.944 -196.585
-276.911 221.05 -82.6814
-293.029 205.036 -58.9121
-93.5049 151.489 -250.831
-174.858 198.496 -166.626
-354.222 125.72 -85.9626
-310.75 151.718 -142.341
-290.366 95.6187 -150.673
-316.524 154.227 -20.3962
-323.254 25.9806 -38.3969
-347.975 126.321 -63.8851
-280.513 65.6773 72.0662
-287.947 -73.4105 188.56
137.275 208.692 185.384
178.664 211.475 92.716
46.2391 60.8948 380.877
101.451 138.742 290.542
230.237 19.2235 243.391
191.742 58.2715 277.203
200.388 -12.029 319.403
-60.6341 4.80808 425.046
-7.71965 25.484 425.033
-220.511 -112.276 330.011
-168.329 -50.378 375.892
-2.4104 -193.579 435.014
-76.9553 -138.673 429.31
-92.5033 -253.393 430.909
-301.035 -142.852 149.777
-272.92 -139.945 244.793
-297.248 -102.542 -51.8636
-306.218 -114.918 35.0746
-237.777 -285.808 166.893
-287.185 -223.899 108.467
-241.622 -265.9 66.5756
-199.807 11.2627 -171.742
-252.757 -59.2137 -124.903
-4.57479 124.609 -270.281
-76.3097 120.888 -250.627
-173.997 -146.291 -133.753
-119.254 -35.0137 -195.421
10.8625 -7.03905 -159.704
165.604 189.893 -158.22
85.8655 148.683 -247.936
270.12 200.654 -53.2451
256.505 219.304 -82.6644
275.705 90.0859 -144.82
290.89 147.879 -135.444
331.871 113.118 -83.5095
220.335 -277.507 167.627
171.182 -303.73 278.508
126.467 -349.608 251.787
205.811 -102.04 324.651
199.501 -215.372 310.827
254.053 -138.791 236.138
44.3953 -344.527 401.322
123.827 -291.252 382.383
79.244 -253.299 427.542
47.1343 -387.34 286.949
109.219 -337.491 165.792
-53.8982 -348.465 406.269
-5.07317 -407.331 346.038
-121.959 -337.208 175.017
-56.8813 -388.336 291.859
-137.052 -355.654 254.892
143.324 -290.672 58.2039
162.691 -291.622 28.5397
-178.38 -296.161 33.3231
-143.219 -286.091 57.995
141.233 -211.175 -83.0852
1.22558 -205.232 -84.3586
-143.001 -208.565 -81.7281
196.994 -247.704 -32.2519
227.655 -258.683 60.6702
152.324 -147.74 -135.522
165.095 -204.528 -102.418
285.699 -99.5532 -49.0211
226.264 -165.813 -86.7861
247.106 -58.5134 -118.296
266.605 -220.099 106.307
307.907 16.4013 -30.7603
295.927 -106.122 18.6267
273.834 -142.76 155.346
265.522 -73.3236 182.03
64.6475 -138.102 427.167
159.204 -51.8719 370.489
47.9085 3.1828 417
-188.101 -309.116 285.161
-138.847 -293.994 387.804
-218.557 -217.9 321.452
-178.729 -207.911 -107.462
-205.388 -252.278 -34.122
-236.083 -167.678 -90.5292
196.61 17.9934 -160.744
96.773 -47.9148 -203.117
68.058 127.017 -250.482
263.302 51.3197 67.6885
322.136 109.318 -64.2194
290.436 151.814 -20.9994
-189.714 243.279 104.792
-169.941 252.89 146.061
-152.895 274.962 131.609
-178.16 186.815 176.121
-179.737 228.757 158.706
-203.674 196.61 123.416
-124.346 263.355 179.721
-154.389 248.286 172.586
-135.933 232.221 199.94
-238.856 -31.6979 301.803
-235.966 5.12986 286.89
-257.213 -19.5384 262.181
-185.149 44.663 320.506
-210.894 27.6834 307.453
-188.491 11.0656 340.766
-238.959 55.9373 217.546
-228.02 41.4525 267.471
-210.192 88.6394 235.348
-27.6282 129.178 328.467
-52.614 113.116 334.948
-34.6841 73.0688 387.144
-102.06 194.236 259.125
-81.9399 166.558 296.34
-76.8448 202.033 263.958
-97.7269 45.3402 376.365
-89.1272 96.4588 332.87
-132.509 73.7245 330.611
-173.983 139.528 229.477
-156.487 100.812 287.632
-135.268 181.139 242.419
-123.609 291.346 131.994
-132.149 289.32 96.091
-99.4297 271.299 177.882
-110.446 284.617 157.978
-66.3737 306.849 76.6901
-92.4051 298.374 126.04
-53.3239 295.775 117.826
16.9314 130.425 328.143
-4.24802 174.975 296.259
54.4668 230.219 220.914
25.4187 200.892 269.962
63.2486 200.474 259.978
-34.7353 199.952 271.018
-66.4282 229.657 226.107
112.572 283.824 88.4115
106.101 286.829 129.345
135.01 266.884 128.912
47.1706 296.667 118.566
76.6956 297.858 124.001
58.265 307.11 77.0096
106.354 259.011 177.689
93.0365 281.424 157.756
82.4579 270.479 177.437
-45.6286 263.656 181.026
41.0301 264.716 180.57
1.18944 283.213 152.572
-114.461 295.506 41.5117
-167.476 253.658 26.0262
-41.6259 305.809 34.2712
-77.4407 309.572 39.8314
-141.838 258.392 -69.6945
-97.7092 291.676 -14.7974
-81.2623 289.484 -70.5624
159.733 242.956 18.2579
103.676 292.713 38.0954
72.7886 283.911 -66.7321
91.9188 288.419 -9.0753
143.529 245.565 -73.8632
68.8846 308.378 41.6484
36.0249 309.163 35.0719
-31.2146 215.383 -227.861
-3.41137 239.093 -202.589
23.7905 214.696 -227.609
-54.9312 274.259 -126.554
-31.5485 260.421 -166.149
-85.6271 253.014 -162.832
75.6737 248.496 -159.72
23.0175 259.191 -165.723
45.1365 271.427 -126.305
-3.47578 299.344 -16.4695
22.1778 293.633 -77.2602
-32.2581 294.575 -77.8304
-249.524 227.529 -65.4916
-219.057 212.904 -10.7978
-205.789 215.761 -81.8885
-244.637 226.49 -63.6059
-318.46 191.729 -64.944
-286.292 216.162 -71.3874
-312.929 204.542 -76.5779
-47.5171 170.054 -252.92
-76.9991 200.716 -228.853
-192.067 154.609 -182.439
-122.225 178.447 -220.628
-132.728 135.806 -235.891
-105.82 222.4 -194.519
-144.84 229.541 -152.725
-338.784 95.1118 -95.6244
-326.563 113.259 -122.969
-307.814 69.5097 -126.741
-337.811 166.75 -99.7419
-340.129 135.548 -116.816
-360.974 142.721 -78.1392
-269.182 109.067 -164.019
-303.128 125.778 -148.196
-278.796 134.606 -162.003
-242.709 204.3 -130.238
-264.67 176.635 -150.158
-294.801 195.772 -116.805
-237.462 187.232 21.1066
-332.42 165.399 -49.9068
-311.39 178.266 -36.5499
-250.211 165.486 29.9111
-259.388 136.269 43.8792
-323.157 31.3832 -66.4212
-347.77 101.874 -70.3969
-326.449 71.1894 -30.2118
-341.788 98.9162 -59.7492
-318.92 1.45975 5.29729
-354.496 129.23 -71.471
-354.542 139.131 -67.6244
-269.869 -21.6472 224.002
-274.668 -62.3151 236.96
-259.551 77.7425 120.189
-262.774 23.4233 191.401
-299.242 -65.5872 126.306
-280.26 -16.5857 158.674
-300.076 12.6977 49.3672
-337.159 137.545 -37.6841
-323.057 111.346 -19.1815
-308.648 121.114 -2.54348
148.794 245.919 141.769
172.853 229.657 85.1268
115.702 226.451 197.36
134.063 243.08 168.395
187.76 174.863 108.503
155.844 223.86 154.097
158.251 166.947 180.527
19.5015 73.6148 382.847
40.7949 115.662 331.559
124.313 71.7877 323.343
80.2801 96.9638 326.229
90.5025 44.0757 364.669
70.0381 163.414 292.616
88.7162 189.675 255.805
234.286 -15.6501 260.485
218.845 4.29623 282.07
219.936 -30.2402 299.68
199.739 76.9006 236.425
213.438 40.0384 262.154
221.261 51.9724 218.994
176.111 5.79115 334.582
197.381 24.9079 300.295
173.228 41.3236 313.186
121.644 171.192 242.192
146.17 94.9509 284.028
159.506 124.364 234.82
-34.9806 44.6895 412.359
-8.04025 52.739 406.62
-97.9907 17.5226 394.665
-61.2505 31.4734 411.311
-7.65422 -2.04082 436.294
-36.4259 14.3505 429.708
-35.8003 -12.6038 437.893
-246.664 -76.5374 302.159
-222.202 -51.3113 328.522
-160.258 -124.341 376.451
-197.022 -77.9752 355.538
-185.728 -164.595 351.78
-194.287 -28.2479 352.569
-161.953 -9.29294 368.253
-2.50595 -253.995 435.198
-56.214 -235.755 435.923
-50.3155 -275.039 434.886
-36.7358 -81.7383 431.352
-49.3086 -164.353 434.092
-1.06071 -107.958 439.975
-115.898 -243.14 415.814
-85.5347 -220.569 427.227
-105.027 -194.781 409.958
-110.412 -23.1697 398.043
-112.617 -89.869 403.809
-67.6231 -46.1272 427.974
-286.169 -102.984 214.946
-269.713 -95.565 260.422
-304.238 -101.039 115.957
-300.309 -107.317 171.179
-267.402 -184.183 230.493
-293.133 -137.772 196.327
-285.44 -181.572 170.892
-305.445 -47.1494 -72.7551
-315.838 -53.8065 -40.3006
-288.428 -159.726 19.4395
-308.137 -106.493 -18.4562
-279.069 -149.148 -30.5676
-318.108 -65.544 -3.63423
-316.492 -80.365 46.7047
-217.417 -304.414 146.238
-246.147 -278.596 115.483
-219.333 -294.611 97.2559
-280.831 -227.596 146.313
-267.672 -254.739 131.828
-251.929 -258.855 187.157
-257.11 -236.102 32.0464
-268.158 -247.789 89.4616
-279.78 -217.902 62.9996
-304.376 -143.909 94.7019
-298.539 -182.695 84.5806
-302.522 -190.075 123.215
-272.726 30.1405 -137.396
-283.955 -13.8958 -111.422
-207.879 85.0175 -172.125
-255.689 62.0783 -160.425
-212.532 -97.0489 -140.3
-232.231 -22.6214 -150.137
-185.394 -64.467 -168.039
-3.53302 140.938 -273.275
-43.9792 132.649 -268.42
-33.1797 92.1517 -249.684
-36.6983 122.092 -262.932
-5.38413 110.952 -260.622
-88.1584 129.652 -254.801
-127.66 129.061 -233.297
-122.457 -161.138 -117.206
-126.47 -102.056 -143.418
3.47079 -126.117 -108.977
-160.999 -81.54 -168.78
-167.826 -90.7639 -166.706
-179.917 -136.586 -142.704
8.4079 64.2206 -228.766
-100.201 -22.4748 -209.501
-48.6465 35.8517 -219.949
-128.536 75.263 -202.601
-78.9768 37.7717 -216.978
[...]
POINT_DATA 642
SCALARS Mean_Curvature double 1
LOOKUP_TABLE default
0.0106317
0.0110256
0.0139296
0.00814407
0.00857686
0.00380146
0.0626365
0.00943856
0.00239944
0.00847883
0.00439608
0.008743
-0.00227954
0.00412389
-0.00191924
0.00499973
-0.0045435
0.00385422
0.00234732
-0.0123166
0.0400786
0.0125943
0.0050901
0.00047776
0.00159663
0.0110901
0.00679238
0.00523247
0.025647
0.0382576
0.0446093
-0.0122097
0.00412538
0.00125672
0.0164026
0.0113175
-0.0051736
-0.0414606
-0.0421372
0.00877208
0.00852239
0.0142568
0.0185704
0.0102266
0.0158583
0.00956182
0.00746792
0.00579664
0.009676
0.00670398
0.00808098
0.0124226
0.00296812
0.0111602
-0.000130059
0.0051486
0.0175311
0.0154365
0.00288516
-0.00226404
-0.00403506
0.00423779
0.00909837
0.00833956
0.00931375
0.0204293
0.00434999
0.0147082
0.00337571
0.0217088
0.0209764
0.00882001
0.0136488
0.000154198
-0.00712648
-0.00205296
0.00079446
0.00335073
0.0003798
0.00463977
0.00638225
0.00870193
0.00803312
0.00897574
0.013014
0.011775
0.0051129
0.00828893
0.00075947
0.0127572
0.0186793
0.00542703
0.00604225
0.00938904
0.000638383
0.0095196
0.0118963
0.00435628
0.000806072
0.00488829
0.0412823
-0.00412726
-0.00952863
-0.0583983
-0.0112826
0.000416222
0.0172689
0.00578475
0.0236992
0.00829085
0.0165192
0.0448968
0.00731071
0.00546498
0.00440041
0.00719337
0.0101881
0.00772314
0.00822511
0.0125522
0.0219927
0.00798048
-0.0293135
0.0120855
0.0273481
0.00604639
-0.000253547
0.00500243
-0.0081302
-0.0577579
-0.103679
-0.00461443
-0.00294133
-0.0252704
-0.00440068
0.00745972
0.00608179
-0.0213088
0.0846623
0.0105437
0.00970724
0.00983624
0.0142677
0.00593495
0.0138919
0.00286674
0.0024323
0.010585
0.0110011
0.00998534
0.00737383
0.0112884
0.013371
0.111797
0.00926583
0.00828807
-0.00239357
-8.51979e-05
-0.00455885
-0.00372426
-0.00591217
0.0106969
0.0084508
0.0144587
0.0153849
-0.00243915
0.0161512
-0.00196285
0.0157102
0.0142379
0.0107093
0.00677307
0.00746367
0.00777114
0.00754589
0.00900781
0.00895445
0.00293268
0.00724684
0.00399501
0.00237795
-0.00116559
0.0123266
0.00910628
0.011276
0.011923
0.00266283
-0.00273923
0.00303315
0.000238259
-2.21402e-05
0.00353018
0.0182844
0.00769857
0.0112586
0.0197118
0.0115108
0.0177249
0.00101908
0.00528568
0.00423648
0.00119798
0.00800713
0.0102451
0.00509241
0.00264588
0.0028619
0.0165482
0.013898
0.00269184
0.0208082
0.0145992
0.0141393
0.0181139
0.0160102
-0.00102037
0.000308055
0.00587849
0.00831974
0.00185037
0.00311714
0.0176766
0.00624438
0.00396204
0.0098155
0.000141592
0.0107431
0.006002
0.00434598
0.00144435
0.0168688
0.00926163
0.0100092
0.00814512
0.0117248
0.00411887
0.00597583
0.00963559
0.00792519
0.00663796
0.00399076
-0.000740603
0.00767047
0.00690474
-0.0180659
-0.00871694
-0.0178179
0.0250962
0.0058309
0.0417152
0.0384221
0.00550776
0.00994683
0.00668139
0.00614212
0.0348898
0.00851932
0.00830464
0.0104287
0.00629812
0.0113502
0.0161189
0.0306714
0.0585548
0.0112178
0.0151631
0.014613
0.0123863
0.0114422
0.0143759
0.000377467
0.00869492
0.0103335
2.24774e-05
-0.00488797
0.00853401
0.0355317
-0.00485322
0.0154953
0.00529025
0.0492881
0.0261807
0.00483295
0.00510507
0.00383987
0.00443053
0.00163924
-0.000251825
-0.00331033
0.0251136
0.00661509
0.00516615
0.0142231
0.0116036
0.00858683
0.0151826
-0.00291672
0.011973
-0.00347396
0.0105023
-6.40462e-05
0.00388029
-0.00231281
0.0020863
0.00897529
0.00708967
0.00635004
0.0080296
0.00981387
0.00551979
0.010182
0.00475736
0.00783399
0.00893037
0.00710807
0.00447978
0.00132261
0.000995275
0.0157226
0.00944345
0.00681904
0.0113787
0.0141557
0.0174452
0.0162325
0.00958548
0.0062096
0.0022657
0.00700247
-0.00278914
0.00969563
0.00694763
0.000441846
0.00690574
0.00715345
-0.00383263
0.00280528
0.0104873
0.00746107
0.00890244
-0.00458551
0.000513309
-0.000358007
0.00991719
0.00537309
0.00795185
0.0020034
0.0113644
0.00316825
0.0103274
-0.00151775
0.00970564
0.00995857
0.000344854
0.0126279
0.00106891
0.00664563
0.0103953
0.00763515
0.0107277
0.00621156
0.0082855
0.0109372
0.00486444
0.00653533
0.00942715
0.00665071
0.00359441
0.0076626
0.0180825
0.00123516
0.00454373
0.000668503
0.00916922
0.00216603
0.00382085
0.00878344
0.0235889
0.0377303
0.0053845
-0.0010854
0.00125163
0.0569414
0.000426153
0.00319766
-0.00406812
-0.00852421
-0.0673455
0.0233567
-0.00750444
-0.0166533
0.0286332
-0.0158046
-0.0063405
0.00447393
0.0111473
0.00850704
0.0065275
0.00691107
0.00774041
0.0765426
0.00583675
-0.00341557
-0.0060578
0.0101877
0.0420533
0.0246003
2.56846e-05
0.0281162
-0.00815077
0.0102187
0.0173386
0.00907036
0.0176211
0.0186976
0.0119755
0.0597597
0.015708
0.0214841
0.0173732
0.0124715
0.0125217
0.00589343
0.00955714
0.00574592
0.00357851
0.00973517
0.00604888
0.011143
0.00767236
0.0102864
0.00598106
0.00616983
0.00212491
0.0079806
0.000553367
-0.000789078
0.00411509
0.00422191
0.00448317
0.0133513
0.0140977
0.0111726
0.00968744
0.0107007
0.00664898
0.00614048
0.0185599
0.00835371
0.00624692
0.00634468
0.00481696
0.016293
0.0175812
0.0265967
0.00767447
0.00446746
0.0165719
0.0018219
0.0173452
0.0137403
0.0149041
0.0121394
0.00688738
0.0135595
0.00951958
0.0302142
0.0195746
0.00580802
-0.00230514
0.0111024
-0.000940605
0.01352
0.014625
0.0290593
0.0297858
0.0322478
-0.00856488
-0.117612
0.00431315
-0.0048191
0.080976
0.117771
-0.16689
-0.012086
0.0291591
-0.00361409
-0.00569072
0.089707
0.0428795
-0.0280607
-0.00182408
-0.000966674
-0.0216229
0.00210688
0.00821514
-0.00205876
-0.0179762
-0.00530299
-0.00342944
0.009975
-0.00876376
0.00444151
0.00386002
0.00512006
0.00563161
0.0736781
0.0207213
0.00546303
0.00748867
0.010407
0.0045474
0.00284518
0.0289184
0.0132332
0.0879878
-0.0877441
0.155779
0.0105834
0.00790571
0.00797672
0.0072126
0.00429157
0.00485836
-0.000758759
0.00335601
0.00997827
0.020971
0.00958934
0.00790079
0.00946312
0.00527109
0.01083
0.0117533
0.00891109
0.00425901
0.00949537
0.0101338
0.00707872
0.0144894
0.0138627
-0.00569837
0.00523912
0.0024478
0.00219238
0.0158225
0.00123289
0.00810533
-0.000837333
0.0104685
-0.00434822
0.0107935
0.0102621
-0.00396632
0.00265441
0.00459991
0.00431214
0.0100173
0.00684129
0.0105473
0.0070739
0.00389432
0.0144548
0.0158018
0.0172706
0.00808643
0.00104762
0.00320641
0.00516496
-0.00109576
0.00541521
0.00952938
0.00812528
0.00736456
0.00451818
0.0121152
0.011984
0.0202795
0.0091179
0.00903577
0.00481312
0.00378732
0.00394208
0.00219577
0.0116658
0.00769844
0.00527377
0.0059499
0.00182356
-0.00961655
0.0550822
-0.091893
0.0931148
0.00537193
0.00920454
0.0044982
0.0311058
0.097944
0.00683885
0.00751781
0.00401556
0.00488199
0.00766752
0.0360591
0.00637658
0.0107709
0.0024843
0.00434127
0.00120373
0.00720298
0.0130699
-0.00520256
0.0652722
0.0294928
-0.0701332
0.0494737
0.0409427
-0.0474911
0.092518
-0.00761432
0.00338263
0.00707639
-0.00302569
-0.00633644
0.00424083
0.00237269
-0.000801981
0.0024435
0.00251937
0.0353668
-0.00194985
0.0511827
0.0224275
-0.0109299
0.00472292
-0.0046988
0.00215157
0.0121372
0.0085484
0.00569419
0.0133343
0.00537687
SCALARS CoVolArea double 1
LOOKUP_TABLE default
2395.26
2364.16
1622.82
1757.74
1468.83
1606.44
2417
1781.59
2090.37
1394.68
2144.67
1287.06
6213.95
2300.47
1720.77
1622.31
3044.45
3327.08
3622.96
2389.51
845.097
3168.89
2296.56
5841.36
2795.91
1745.08
2485.73
2854.19
1458.72
1336.28
644.906
1393.83
2575.32
2953.55
1994.23
2203.57
4981.51
639.637
378.655
1846.76
2379.2
2318.55
2131.85
2052.71
918.268
1465.48
2527.45
1884.39
1935.49
2976
1881.9
1797.18
1512.74
1842.42
3573.97
1375.04
1456.27
898.225
2608.93
3546.54
3487.62
2639.5
2129.83
2495.23
2070.62
1709.41
2144.36
1808.27
3499.28
749.702
1726.84
1597.23
1818.95
2376
811.052
5017.04
2524.1
2219.75
2417.81
2141.77
2808.29
1571.59
2137.55
1294.43
1561.05
922.738
2673.45
2867.45
3489.64
3236.36
1302.06
2166.75
2353.68
2033.27
2652.17
2156.24
1535.22
2032.03
4696.94
2830.97
574.281
2505.72
1654.61
1365.66
12783.5
4116.39
1697.37
1484.19
1319.54
1370.5
1704.83
690.845
1971.16
2500.08
2164.33
2488.15
2310.02
1986.85
2219.66
2010.15
1146.05
1397.27
1301.95
2140.52
1644.11
1206.13
1420.39
2253.14
5911.21
937.992
757.14
6812.57
2959.97
8497.8
3209.63
1565.71
1886.98
911.762
598.413
1759.03
1924.2
2517.78
1490.24
2027.02
2037.58
2624.89
2806.48
3302.33
2177.48
1940.66
2517.29
2214.43
2300.8
466.532
1649.92
2097.5
5008.46
1661.36
2949.02
5358.96
1081.17
1657.47
2654.86
1176.07
1307.18
3218.14
1389.07
3791.21
1029.42
1009.74
1745.29
1514.37
1544.39
1617.05
2220.98
1431.23
1491.24
3698.79
1813.94
3453.3
2410.95
2273.82
1545.42
2030.07
1986.2
1662.61
2323.29
2883.64
3142.97
3702.89
3756.09
3323.78
1151.91
2328.23
1593.16
842.939
1836.06
1193.71
2928.14
2322.74
2281.25
2308.33
2198.96
1635.93
2326.94
2720.59
2511.28
1234.97
1540.36
2654.35
1083.09
1547.04
983.873
839.081
1311.39
3347.84
2898.11
2963.37
3249.7
3810.84
2652.2
1803.98
3779.15
3341.05
3080.65
3443.97
2859.51
3528.82
3431.06
3907
1585.57
2489.69
2075.87
2143.85
2012.66
2618.96
2258.16
2414.54
2507.79
2209.9
2790.15
3356.25
3160.81
3066.54
1935.75
3974.65
3911.1
1518.5
660.189
451.454
1143.85
2112.06
2243.96
3811.23
3037.96
1936.3
2633.95
3773.1
1732.74
1308.53
2166.41
1729.83
1143.22
698.493
1621.89
1008.2
2180.77
3359.79
2883.51
2205.07
3499.19
850.501
1882.94
2870.32
5299.45
2364.78
1105.68
2519.25
1086.57
2512.11
268.312
504.322
2443.8
1798.12
5617.59
3757.51
3622.39
5023.59
5512.01
926.823
2814.89
2806.24
1244.4
2118.3
1737.71
989.935
5001.06
2104.23
4092.65
1612.29
2332.81
2926.59
2936.36
2559.04
2025.79
2059.93
1560.93
1313.28
1312.97
3100.17
1385.42
2784.79
1397.08
1332.66
2042.88
3165.28
3267.21
3441.03
992.861
1068.15
2023.75
1200.53
951.012
873.315
1490.7
1900.86
1825.46
4233.29
2548.05
3042.18
1605.19
2094.48
2284.32
2310.81
1761.83
2705.03
3095.46
2925.81
1307.21
1802.49
3522.88
2973.58
4451.03
2967.54
1775.08
1902.48
2678.62
1874.88
2665.76
2081.68
2567.19
2584.81
2275.48
3036.32
2225.42
2343.75
2650.34
2794.05
2086.38
1692.22
1805.68
2083.06
1658
2315.82
1959.58
1641.89
2286.63
2546.9
2409.57
1978.47
2616.26
2744.67
3681.56
2791.14
2550.23
3258.14
2699.27
1566.23
1115.26
1947.66
756.767
919.216
725.559
2117.11
3627.26
8293.29
10120.4
959.933
1574.06
310.41
4216.12
5584.55
1771.97
5452.95
3635
3769.6
2220.75
2041.17
3295.76
2930.5
1433.72
3096.24
3539.66
2844.57
1750.95
1013.43
565.116
651.411
1715.79
2590.85
1812.02
1099
1510.89
1938.47
1090.62
1234.24
607.32
1211.79
1505.25
2823.08
2018.13
3046.34
2006.27
2272.81
2343.72
2721.21
2239.98
2040.37
1445.68
1989.71
2009.77
1737.48
2430.72
1911.55
2447.99
2707.41
3204.8
2280.35
2339.14
2629.68
1854.07
1892.86
1667.6
2266.55
2088.14
2308.51
1409.62
1361.73
1683.54
2923
2469.62
2686.66
2168
1860.55
1413.49
1597.55
2502.17
1685.74
2810.92
1780.27
1966.75
1960.7
2065.05
2320.87
2104.02
2000.18
1654.05
2039.04
2579.9
2928.26
1694.16
2915.79
1637.74
1511.81
1466.5
1224.47
1174.75
1756.35
864.696
1835.79
9475.59
1882.4
339.491
659.268
1574.42
1396.87
604.972
2075.95
1223.93
402.129
2617.33
10093.5
3695.83
6860.11
3753.92
2982.51
4246
936.424
1279.32
4365.69
3250.11
12692.3
8894.68
8769.33
1992.08
2010.16
661.247
1239.18
1800.49
1798.98
1767.53
3172.54
1162.61
1100.75
440.068
541.326
535.901
265.364
2365.46
2144.83
2385.11
1997.81
1980.53
2095.84
2603.74
2164.99
1947.42
1310.33
1673.26
1959.95
1724.7
2241.55
1568.7
1527.37
1840.63
2341.98
2062.29
2449.84
1870.41
1808.81
1646.39
2638.1
1632.24
2027.42
2166.26
1615.69
3085.2
1955.83
3087.6
2377.15
3316.05
2219.66
2043.98
3530.14
1781.53
2643.4
2308.42
1437.59
1871.87
1266.14
2117.78
3641.77
1079.14
1548.86
938.356
1454.75
2252.92
4095.67
2973.85
3379.5
2574.71
2239.18
2133.75
2428.96
2822.64
1951.22
1704.86
1552.05
2230.05
2474.32
2569.77
2761.68
2396.99
2428.13
2203.46
2778.46
2575.58
2973.49
1609.75
325.911
828.266
543.344
762.945
1972.37
2022.06
2091.3
1244.04
557.758
2498.4
1908.26
2326.94
2143.86
2211.72
1205.1
2131.25
1654.85
2323.28
3227.59
3179.98
2491.99
3037.99
6435.57
1529.37
3660.41
736.857
1502.52
1018.43
1768.76
507.994
693.313
2170.63
4927.91
4700.6
6389.92
2608.64
4364.67
4840.76
3780.82
5171.9
928.97
549.167
254.093
859.584
2099.62
2326.23
4930.87
2799.74
1453.34
848.69
3015.73
1232.01
3137.63
SCALARS SignedDistance double 1
LOOKUP_TABLE default
68.0453
79.8546
72.0146
66.6949
61.0526
76.1335
191.282
52.7403
65.2108
72.6885
63.5328
68.4577
76.7749
71.7252
78.0036
77.5098
68.017
64.6557
61.7983
81.3208
65.4866
72.7767
72.1109
77.4959
66.8079
66.6261
65.8075
63.9364
94.5422
89.3453
69.3069
91.4489
67.7118
69.277
54.5575
52.0721
119.346
84.482
83.5384
76.1081
69.3894
73.9147
82.6918
79.9223
63.2059
67.1365
71.1178
72.132
71.3393
73.0218
70.7219
68.8184
66.7752
69.9937
75.2288
66.4533
68.6473
66.0411
67.0398
74.3237
80.1376
67.0258
54.1497
59.9509
54.3595
70.0461
67.3796
59.4297
65.5593
68.5084
51.8523
60.4415
76.7276
73.2741
71.642
81.0597
72.7191
82.2104
85.5689
73.3815
73.6193
74.6609
72.2522
69.9488
65.422
66.8704
65.8009
65.9001
63.8476
63.773
64.2548
69.9159
67.3192
62.5181
73.4108
59.5677
62.5244
64.6605
72.687
66.1335
74.9179
73.9469
85.816
109.045
157.205
72.497
61.6097
70.1771
69.2336
63.3193
52.6112
73.1426
64.2167
62.3154
63.4652
68.043
67.5343
71.6003
50.3268
61.5554
67.0976
77.2592
92.0113
47.1584
65.7197
91.6001
80.2241
65.4053
86.073
88.0192
91.2205
98.4639
87.7771
194.089
98.4272
66.1184
65.2827
82.9628
83.953
63.9067
64.2176
66.415
66.684
79.5472
70.3742
74.8801
75.5302
65.0488
67.7312
69.2162
58.6532
56.0405
62.6362
92.9925
68.0445
62.5934
72.0199
123.341
70.275
90.3281
73.6658
78.8753
73.6394
65.3459
61.0561
81.2918
73.7139
83.5748
67.1379
68.0989
75.9738
68.7248
70.0785
69.9752
69.5809
69.0387
67.9464
73.7683
71.0949
74.6736
84.0488
83.2087
72.8615
69.4321
69.4125
68.7249
72.2207
78.5175
75.7567
75.7875
76.9514
72.7779
60.579
62.2709
70.069
66.2611
69.9122
66.4085
67.6113
83.9683
71.3708
77.9605
70.3653
70.6118
70.2796
77.0615
65.557
62.1259
65.8766
67.8681
65.862
68.8529
68.6993
64.8384
69.107
72.6275
75.102
68.8065
62.5063
71.7177
71.7419
64.4838
64.6061
62.4906
60.2862
80.9109
65.1218
60.9426
64.4889
72.7641
62.669
71.754
51.7627
54.2909
51.3392
58.7658
56.9105
56.0128
57.5433
58.0084
59.2156
67.4792
61.5208
62.5012
85.2199
74.6578
75.7322
87.5032
63.8745
69.7319
65.5096
56.0902
51.6414
71.1929
54.416
71.7635
53.7475
58.8564
60.11
57.0912
60.8843
46.9072
58.3743
72.7376
68.6984
60.1873
66.6168
78.4866
66.4584
54.023
80.2018
66.9358
70.8158
81.7678
82.3948
67.0246
71.1718
73.7182
71.0802
78.2941
73.5565
73.0219
72.6239
72.2655
73.4835
73.3475
74.5997
76.2746
79.4709
77.8016
78.7512
81.3965
70.7994
85.6182
79.0213
72.0825
81.1262
79.0604
81.2455
73.9653
83.2487
75.4128
79.3418
74.3484
70.8548
71.5922
73.3024
72.1679
71.1332
76.3688
72.2749
76.9095
70.4549
71.0128
71.7245
74.5922
77.8929
78.8831
68.4889
69.7906
71.1739
67.4755
65.0708
65.3478
64.4283
67.2682
67.5679
68.6491
65.9421
69.015
66.4605
69.2783
61.7118
62.4328
61.3568
71.4541
64.2017
71.3142
66.2652
67.1528
67.7002
71.9276
73.1154
69.2938
70.1605
68.4202
71.5149
72.5557
66.7202
65.8685
70.9443
61.1667
66.5961
70.6755
66.1964
70.4117
69.0415
73.4996
61.6305
62.7444
64.9197
63.531
61.9668
62.8641
63.1094
62.5082
64.2508
71.6413
69.7095
73.4623
65.4341
64.3672
78.8645
69.5567
67.1
67.0103
71.8631
68.2602
74.5739
85.3465
73.8317
76.073
72.5994
70.9995
113.071
102.266
177.982
87.1884
87.3738
87.6882
98.2565
130.597
125.531
91.7022
124.115
92.9348
53.4827
56.4507
69.4716
55.2511
77.49
57.9236
85.7802
80.5773
79.4877
68.2436
70.0262
66.2849
81.0856
83.1068
62.8593
61.1299
66.1626
65.2
59.3459
67.7046
74.5571
56.4537
55.7361
75.2347
51.1056
60.157
63.8245
62.9949
66.112
66.5714
62.2952
65.5628
64.8897
60.5407
62.9324
70.4204
70.3021
74.4388
66.613
71.2207
71.7967
68.5268
69.1597
67.3512
55.8748
53.7409
61.3514
56.0837
51.9051
51.2079
68.7458
63.9053
68.5284
64.0941
63.5026
62.2495
80.4035
86.1754
69.6576
70.3481
90.5665
83.9202
88.5983
55.7632
46.966
64.8707
46.0108
49.4866
47.306
60.4227
87.1041
83.671
68.7027
93.4444
87.6844
97.0457
62.2328
75.5563
74.9184
78.0676
81.0979
78.8226
93.5031
78.1119
101.018
100.015
86.911
88.5168
85.9362
85.9336
86.1951
89.0926
93.3681
87.7453
85.9272
115.479
118.617
183.416
143.925
86.618
109.078
83.0968
85.6125
123.69
96.1931
182.155
136.359
120.107
68.2636
66.5141
85.3164
79.5228
66.5513
65.2287
63.7747
94.1162
86.9788
81.3009
83.3137
85.2484
83.0531
84.7813
63.3246
65.315
66.0308
66.4589
68.2355
71.2716
69.3054
72.5619
65.2788
79.1125
68.2995
64.8187
64.6472
69.0879
64.6538
63.7838
66.5754
71.3418
68.3898
70.3689
70.8364
76.8891
68.0321
75.6286
74.809
74.7271
74.5126
71.0434
78.5435
74.7956
77.4601
74.1899
76.6846
74.3733
66.5744
68.2758
68.9645
65.2597
75.5394
68.882
70.0581
68.7701
67.9406
69.524
69.1139
66.0294
66.7234
70.1823
73.3337
73.3452
73.1667
73.8678
62.1109
57.9049
59.3324
61.9059
63.6729
52.8106
66.3827
62.1837
50.1722
52.1421
65.1722
65.788
67.7359
71.2369
64.4428
57.9375
62.1357
60.6538
96.0212
85.9486
95.5906
85.1984
87.2918
71.3718
62.28
65.0696
85.3912
86.8163
64.3182
67.1862
66.1935
66.1805
64.0029
85.259
64.1525
75.3238
65.9051
68.3546
71.8515
66.3416
83.896
89.5517
138.752
133.962
85.6863
88.8284
74.8816
75.6528
70.7078
73.4849
84.6093
90.4536
124.98
85.6052
77.1358
80.2128
78.4745
77.5124
78.2229
74.0908
72.6281
74.473
72.6143
80.0739
84.4593
83.8052
83.5119
74.2186
70.2798
79.0781
78.3412
81.6543
