# vtk DataFile Version 4.2
vtk output
ASCII
DATASET POLYDATA
POINTS 642 double
-244.934 363.762 92.1233
237.896 355.108 86.6094
-249.144 -426.604 110.53
240.589 -421.128 113.027
-2.51433 -322.615 539.934
-3.01768 178.118 480.255
0.278091 -255.605 -225.326
-1.25814 238.377 -338.426
401.274 0.116232 -152.709
362.025 -42.6449 333.831
-413.903 1.18337 -156.592
-376.8 -43.4677 337.691
-335.742 191.106 213.993
-216.875 88.5954 459.472
-140.301 334.597 300.791
132.983 331.583 298.96
-0.562103 428.299 87.4117
148.594 355.019 -157.491
-151.384 359.713 -159.98
-255.92 127.413 -296.201
-429.617 230.295 -71.3164
-447.862 -30.1008 76.9081
212.296 85.5144 453.149
327.368 179.801 212.332
-224.678 -213.012 489.593
-1.40874 -38.8824 564.799
-370.113 -262.877 -40.922
-370.026 -275.128 245.849
-3.0158 9.11748 -372.65
-232.003 -166.742 -260.964
414.842 223.812 -67.7239
250.939 127.978 -296.25
358.023 -270.822 241.926
214.818 -211.845 483.358
145.613 -451.732 364.148
-149.601 -455.275 367.362
-2.51576 -486.33 151.506
-154.355 -384.692 -118.943
149.135 -383.642 -118.364
228.375 -167.138 -255.854
361.542 -258.112 -41.6346
438.232 -29.0101 74.0739
-309.106 292.933 152.302
-251.918 287.627 266.17
-197.143 371.27 207.203
-309.924 27.5915 410.76
-296.628 136.563 356.343
-371.088 67.3518 293.832
-72.0895 267.813 397.485
-176.574 220.62 392.02
-105.6 141.327 490.055
-86.524 406.654 206.279
-125.854 420.329 93.9872
66.8234 266.64 395.4
-0.559488 340.768 313.253
121.077 418.741 91.5437
80.109 405.358 206.39
188.389 365.308 205.214
-77.1585 419.942 -36.1181
-219.871 365.113 -41.7129
215.069 361.596 -38.5235
73.8362 417.733 -33.954
-79.4147 316.567 -264.31
-1.8633 383.139 -174.953
75.1451 314.764 -262.892
-315.417 312.581 -121.396
-357.369 304.175 -17.0802
-126.838 191.511 -340.38
-217.444 262.306 -244.932
-452.847 117.271 -129.991
-368.438 190.299 -206.908
-359.101 76.2011 -241.46
-414.942 218.47 49.4317
-451.554 0.458577 -49.7841
-474.047 118.756 -16.2724
-412.902 93.0798 126.405
-421.359 -50.8602 221.235
239.396 280.777 263.432
298.529 284.93 142.355
99.198 139.545 484.941
170.758 216.855 388.218
358.382 66.9027 290.517
288.722 132.934 351.589
300.762 25.0558 405.897
-109.406 35.8272 539.296
-2.88452 79.5053 542.726
-313.429 -121.464 417.692
-236.665 -40.6823 485.102
-1.38839 -196.905 556.74
-118.237 -136.871 544.744
-128.777 -269.848 537.601
-429.164 -161.704 170.943
-388.453 -161.565 298.111
-401.476 -144.916 -103.961
-432.07 -150.75 20.7774
-323.867 -366.918 180.702
-394.653 -283.075 102.512
-323.439 -355.712 34.4544
-254.022 -6.90649 -288.422
-331.823 -91.9169 -218.34
-1.49555 114.826 -391.621
-118.794 78.7688 -367.22
-139.21 -217.402 -270.539
-126.258 -82.9385 -326.157
2.22672 -98.1208 -298.401
211.262 254.753 -240.311
122.923 189.482 -337.501
345.252 299.328 -13.0424
305.275 308.061 -118.434
351.095 70.8725 -237.259
356.901 186.502 -200.582
434.138 111.153 -123.376
314.057 -360.575 180.228
262.756 -374.417 315.426
192.141 -451.707 251.335
305.452 -115.166 411.32
303.467 -246.731 378.944
375.745 -158.561 292.347
74.6488 -405.827 470.622
196.666 -339.53 451.243
123.838 -268.273 534.072
70.7141 -508.463 260.061
121.889 -473.661 127.073
-78.9454 -408.143 473.483
-1.67324 -487.45 384.923
-126.072 -475.941 128.312
-74.0953 -511.769 260.012
-199.158 -457.658 252.143
104.327 -433.23 1.07372
198.469 -411.947 -11.201
-202.032 -417.665 -10.0257
-109.425 -432.496 2.00688
107.043 -320.424 -190.811
0.253715 -352.087 -108.998
-111.397 -319.506 -190.91
267.65 -338.803 -89.1334
314.556 -349.385 32.566
131.523 -217.487 -269.623
193.874 -289.88 -202.715
393.591 -142.86 -101.14
312.391 -221.109 -164.241
326.304 -91.5436 -213.853
381.423 -277.805 101.802
438.322 -3.78288 -44.9326
423.87 -146.253 14.4942
412.592 -159.829 172.257
405.325 -51.6143 216.06
112.254 -136.432 542.564
231.869 -40.9202 480.431
103.026 34.5568 533.719
-273.192 -379.26 319.146
-203.556 -342.982 455.318
-315.112 -249.251 385.547
-196.115 -293.016 -206.88
-272.804 -341.9 -90.4163
-318.436 -223.043 -167.487
251.424 -4.6253 -281.382
119.22 -86.1459 -324.13
113.694 81.5476 -364.376
399.077 86.0498 124.722
452.861 113.054 -15.6242
398.454 214.366 49.3883
-281.062 332.192 121.674
-253.952 339.246 186.443
-220.319 374.407 154.54
-295.841 247.443 244.411
-280.237 295.935 217.35
-326.814 251.388 178.129
-170.401 358.771 254.979
-228.153 332.585 239.752
-198.858 316.749 285.839
-346.409 -7.2986 376.884
-345.807 48.5283 354.978
-377.614 12.9656 317.699
-263.265 113.219 410.395
-306.111 83.6866 387.031
-267.919 59.317 437.416
-358.233 120.989 262.828
-336.955 103.988 328.016
-319.434 161.677 293.36
-36.753 222.802 438.176
-87.6477 203.706 444.576
-55.0492 162.01 490.24
-157.462 281.752 348.771
-125.035 249.049 397.315
-105.728 301.755 352.252
-159.554 116.313 478.526
-143.128 179.174 440.314
-197.957 150.785 430.533
-270.655 213.348 307.97
-238.405 180.1 375.957
-214.723 256.681 329.641
-166.898 401.954 154.725
-185.215 398.393 96.556
-116.771 377.892 254.434
-141.565 394.64 209.233
-71.9131 433.633 89.4971
-107.844 419.358 152.255
-48.4357 421.551 147.724
31.4884 222.741 437.35
-2.22486 268.799 399.9
71.5931 340.641 309.256
36.0269 306.353 358.99
99.7378 299.899 349.63
-40.0849 306.201 359.837
-77.2223 340.576 311.164
175.859 393.63 93.1473
159.095 397.027 152.268
210.974 367.433 152.597
45.0309 423.441 148.007
100.99 416.776 150.155
68.6921 432.376 89.7262
162.365 354.101 252.724
134.674 390.541 208.175
109.017 375.233 253.604
-44.8807 378.679 258.3
42.3505 380.602 259.722
-0.242054 404.489 205.802
-164.533 404.962 30.9587
-235.247 364.852 21.5814
-43.4593 433.555 27.0183
-102.01 426.204 29.9627
-187.284 365.539 -101.599
-138.696 402.635 -36.9764
-112.904 396.434 -100.645
230.282 360.419 18.1387
159.927 402.122 29.8618
108.775 392.474 -98.8981
137.103 399.592 -33.8836
185.053 359.256 -99.5932
99.5675 424.457 31.7474
40.6626 433.749 27.8475
-40.6256 281.35 -305.926
-1.4084 320.599 -269.617
37.5013 280.735 -305.388
-75.2934 376.942 -171.121
-40.5152 354.307 -222.206
-115.596 343.214 -215.521
110.484 340.024 -213.336
36.9701 353.538 -221.867
70.9676 374.56 -170.415
-2.36646 424.291 -37.9097
35.8913 405.616 -107.798
-40.4958 407.231 -108.044
-302.24 341.053 -34.7749
-301.411 322.579 24.3352
-240.571 329.6 -137.554
-280.643 344.87 -84.6617
-397.378 275.088 -41.6393
-344.006 318.791 -64.5675
-376.829 278.126 -97.5862
-64.543 218.068 -344.1
-104.387 259.505 -308.899
-239.359 195.564 -274.721
-168.031 230.672 -300.926
-186.692 158.614 -327.321
-144.104 293.815 -262.379
-187.685 316.203 -207.198
-435.92 66.7149 -147.153
-412.022 97.9239 -192.464
-392.704 41.4842 -202.603
-404.423 213.434 -142.213
-416.656 153.178 -172.967
-447.188 170.681 -101.231
-319.559 104.694 -271.648
-372.708 131.389 -233.606
-325.159 160.346 -256.26
-277.51 291.779 -189.311
-305.829 231.628 -228.109
-346.331 258.55 -169.557
-334.182 290.102 60.2011
-428.08 229.696 -9.59177
-392.699 263.249 16.2268
-361.494 248.116 91.0111
-375.834 205.472 114.569
-438.773 0.752915 -103.079
-462.165 69.1239 -88.2967
-458.743 67.2211 15.4677
-469.863 73.2132 -34.664
-451.107 -8.40296 12.0544
-477.743 121.032 -67.6838
-464.473 168.878 -42.8163
-400.081 11.3622 262.139
-402.779 -45.9484 281.963
-382.203 134.854 170.255
-391.839 71.0762 228.297
-435.091 -46.9259 152.239
-416.556 14.9307 189.831
-433.583 35.7698 96.2444
-452.393 168.659 18.6065
-454.339 117.634 43.8577
-428.094 162.664 76.9039
242.825 331.987 183.441
273.803 323.017 114.04
189.515 311.456 282.921
217.723 326.567 236.34
314.349 239.782 168.456
266.263 290.374 212.707
281.297 235.894 241.97
48.5945 161.063 487.616
82.1229 202.893 441.279
192.9 148.378 424.882
138.181 177.697 435.21
154.611 114.11 471.426
119.575 246.56 393.999
150.542 277.937 346.069
363.184 13.604 314.507
334.644 46.7698 350.462
334.666 -7.12891 373.182
311.571 154.338 292.271
327.063 101.846 323.435
347.154 117.181 261.685
260.481 55.9349 432.172
297.236 80.9442 381.633
255.972 110.234 404.821
206.863 250.45 327.304
231.873 175.912 372.144
261.977 205.104 307.976
-55.9878 113.6 523.012
-3.09163 130.289 516.576
-162.016 64.1129 504.019
-109.463 89.6251 519.501
-2.80899 24.9051 559.374
-57.6513 57.9498 547.137
-57.5647 1.81179 559.658
-352.066 -76.7812 378.822
-318.344 -40.8451 417.089
-231.999 -128.235 483.366
-279.39 -80.3327 454.429
-272.185 -169.805 451.75
-276.888 -5.45847 451.316
-230.736 26.3822 476.433
-1.65334 -262.732 553.076
-67.5118 -240.434 553.907
-64.4651 -299.557 542.017
-58.3709 -82.3861 560.55
-64.5748 -165.704 555.433
-0.85196 -111.263 564.279
-180.381 -243.548 521.045
-127.327 -214.017 545.153
-170.579 -185.517 521.313
-173.088 -2.82065 515.028
-175.242 -86.9658 519.667
-113.057 -39.8973 546.269
-413.49 -102.96 260.033
-387.48 -100.629 318.657
-439.326 -103.404 131.774
-433.156 -105.327 198.69
-381.809 -220.593 274.936
-413.752 -160.589 234.576
-405.896 -219.236 206.465
-408.01 -76.0924 -130.221
-431.709 -78.7003 -75.1741
-405.701 -208.088 -10.7443
-423.07 -147.842 -46.7234
-387.207 -203.698 -75.1979
-445.135 -86.0722 -15.5774
-447.707 -95.2902 50.4245
-289.646 -401.078 145.902
-330.449 -366.447 105.325
-289.991 -394.633 72.2205
-388.746 -282.365 169.76
-365.043 -326.616 138.872
-350.899 -324.112 214.204
-350.251 -311.735 -4.12798
-363.673 -322.784 68.7291
-386.585 -276.961 34.0141
-437.173 -163.591 96.5869
-419.227 -222.71 66.1604
-420.274 -226.084 135.017
-348.986 -0.784213 -232.063
-373.486 -45.0019 -190.339
-260.619 71.8445 -297.818
-313.854 39.7482 -267.899
-282.779 -133.228 -242.543
-298.332 -49.8369 -254.686
-244.04 -94.26 -278.983
-1.41647 175.693 -368.786
-63.3626 152.759 -372.015
-55.5038 44.9814 -376.62
-61.2285 94.8416 -385.646
-1.89345 65.1624 -386.708
-128.895 127.238 -365.439
-185.041 105.747 -343.477
-100.325 -231.875 -255.196
-96.3493 -171.687 -285.072
0.81741 -181.901 -262.729
-179.158 -132.286 -297.796
-137.334 -155.13 -297.82
-179.38 -197.522 -274.491
-1.95144 -35.4471 -350.008
-81.75 -86.194 -319.936
-57.1702 -27.1611 -353.162
-181.978 43.1627 -326.714
-114.051 1.45134 -346.962
[...]
POINT_DATA 642
SCALARS Mean_Curvature double 1
LOOKUP_TABLE default
0.00480556
0.00298232
0.00580013
0.00505993
0.00912276
0.00464966
-0.00738082
0.00623321
0.00273971
0.00535389
0.0042058
0.00552468
-0.00162815
0.00365575
0.00409413
0.00439045
-0.000969931
0.00353602
0.00386893
0.00297892
0.00944997
0.00475772
0.00390097
-0.000245014
0.00425301
0.00385515
0.0040324
0.00326045
0.00789851
0.00307326
0.00981743
0.00583869
0.00354533
0.00398185
0.00421518
0.00439499
0.000609293
0.0108944
0.0106553
0.00399106
0.00424036
0.00640001
0.00418923
0.00494199
0.00631836
0.00505823
0.00418125
0.00445322
0.00536819
0.0035037
0.00506415
0.00678528
0.00364215
0.00515599
0.000799535
0.00512951
0.00696543
0.00629699
0.00393559
-0.000827507
-0.000255129
0.00331156
0.0052198
0.00534249
0.00527091
0.0056907
0.00645467
0.00433376
0.00144853
0.0108093
0.00558301
0.00452898
0.00750425
0.00260439
0.0115333
-0.00129901
0.00253924
0.00447258
0.00334038
0.00420622
0.00350504
0.00492855
0.00440304
0.00506197
0.00632281
0.00606224
0.00204118
0.00444851
0.00111536
0.00291067
0.00781936
0.003515
0.00357575
0.00488799
0.00178119
0.00391545
0.00585184
0.00402853
0.000819152
0.00380887
0.0114646
0.00592047
0.0086071
0.00831863
-0.00676446
-0.000544612
0.00407956
0.005909
0.00498006
0.00705255
0.00597585
0.0069703
0.00404944
0.00390601
0.0021396
0.00366588
0.00476537
0.0038682
0.00533927
0.00562303
0.00816583
0.00603573
0.00516649
0.00593929
0.00518379
0.00491385
0.00670084
0.00389754
0.00111879
0.00277847
0.00283308
-0.000138007
0.00144042
-0.0117159
0.000472247
0.0052703
0.00398106
0.00970429
0.00422107
0.00500401
0.00487413
0.00452434
0.00587151
0.00204961
0.00479465
0.0040434
0.00231406
0.00353971
0.00550877
0.00558218
0.0043003
0.00521809
0.00406275
0.00500087
0.00500659
0.00481302
0.000548943
0.00842989
0.00604536
-0.00201122
0.00810391
0.00709631
0.00428192
0.00578795
0.0060578
0.00400771
0.00633883
0.00403584
0.00639275
0.00640548
0.00472478
0.00458976
0.00486512
0.00469472
0.00458052
0.00505393
0.00499132
0.00304051
0.00466295
0.00266878
0.00198019
0.00236606
0.00554901
0.0037299
0.00480453
0.00426207
0.00346331
0.0013685
0.00247877
0.000752879
0.00222225
0.0027412
0.00645524
0.00419439
0.00665492
0.00663292
0.00812673
0.00681637
0.00188801
0.00253924
0.00324867
0.00325377
0.00434754
0.00393328
0.00372018
0.00303934
0.00305467
0.00610754
0.00559258
0.00438398
0.0054669
0.00772714
0.00631332
0.00656032
0.00624623
0.00247198
0.00503405
0.00196348
0.00423504
0.00066513
0.0047069
0.00526125
0.00171563
0.00275353
0.00466488
0.00087084
0.00495403
0.00397156
0.00319774
-0.000711302
0.00545842
0.00556468
0.00531253
0.00515566
0.00567617
0.00389364
0.0046464
0.00518306
0.00477541
0.00506759
0.00386201
0.00303556
0.00423199
0.00447352
0.0084076
-0.00210055
-0.000670044
0.00903253
0.0105583
0.0113914
0.00566969
0.00484373
0.00534285
-0.000456513
0.00474991
0.00411776
0.00492096
0.00316469
0.00415505
0.00822341
0.00495349
0.00517014
0.00665293
0.00437126
0.00798596
0.0105274
0.00643727
0.00680348
0.00606439
0.00571489
0.000377752
0.00711561
0.00618961
0.00138765
-0.00110581
0.00288641
0.00581907
0.00195038
0.00709192
-7.45982e-05
0.0161484
0.00979539
0.00410103
0.00434131
-4.04899e-05
0.00282798
0.00209718
0.00138898
-0.00111121
0.00721188
0.00705984
0.00626283
0.00543885
0.00357736
0.0044307
0.00640966
0.000428915
0.00618742
0.00107018
0.00512201
0.00225722
0.00272116
0.0015069
0.00288079
0.00467739
0.00364478
0.00466308
0.00484787
0.00531877
0.00351982
0.00506117
0.0038254
0.00480013
0.00492046
0.00448442
0.00268787
0.00262055
0.00160777
0.00657667
0.00590834
0.0041619
0.00595636
0.00643376
0.00668376
0.00656535
0.00546937
0.00464776
0.000405046
0.00442461
0.00216177
0.00513987
0.00430856
0.00416649
0.00521773
0.00591927
0.00367973
0.00175126
0.00354554
0.0101037
0.00738795
0.000720612
0.00298977
0.00252128
0.00380602
0.00509137
0.00459409
0.00188694
0.00747925
0.00298132
0.00370303
0.00348404
0.00330613
0.00355037
0.00189276
0.00562947
0.00323941
0.00509328
0.00459309
0.00427147
0.00596384
0.00517336
0.00485471
0.0054763
0.0033948
0.00397223
0.00518137
0.00436543
0.00498854
0.0052041
0.00635381
0.00385886
0.00172884
0.00312702
0.00455717
0.00334744
0.00179675
0.00370966
0.00444608
0.00418327
0.00433466
0.00997475
0.00696753
0.00916294
0.00987615
0.000885131
0.00140327
-0.0030217
0.00476474
0.00709327
0.00776654
0.00464762
-0.000705358
0.00606114
-0.00158232
0.000959831
0.0033663
0.00510657
0.00500591
0.00228122
0.00483533
0.00362644
0.00466033
0.000989461
0.00106598
0.0081672
0.00593524
0.0111417
0.0100492
0.00739235
0.00633722
0.00532323
0.00850525
0.00659608
0.0062833
0.00714855
0.00775183
0.00554663
0.00621986
0.00507053
0.00589615
0.00569128
0.00615081
0.00363123
0.0047328
0.00403075
0.00367254
0.00388738
0.00413844
0.00920217
0.00388115
0.00591189
0.00433335
0.00302132
0.00420304
0.00450143
0.00349421
0.000330326
0.00311808
0.00370165
0.00392934
0.00609934
0.00448991
0.00500786
0.00527869
0.00511125
0.00479117
0.00897936
0.00632241
0.00658507
0.00372479
0.004368
0.00505465
0.00240388
0.00285874
0.00647916
0.00641107
0.00502535
0.00381478
0.00434278
0.00625006
0.00624806
0.00479357
0.00637403
0.00519067
0.00672521
0.00449831
0.00289306
0.00240665
0.00212042
0.00337928
0.00508285
0.00515454
0.00735621
0.00648733
0.00570068
0.00964642
0.0107133
0.00801628
0.00432467
0.00347744
-0.0007627
0.00771543
0.00659288
0.0088486
0.00821039
0.00368757
0.00706541
0.00601027
0.00947357
0.00869531
0.00494927
-0.000796781
0.0102002
-0.0117004
0.0100539
0.00204022
0.00980752
0.00941381
0.00714387
0.00965558
0.00118117
-0.00667329
0.00506938
0.00500107
0.00372165
0.00467756
0.00390682
0.00461765
0.00403761
0.00479527
0.00518797
0.00208209
0.0075658
0.00479717
0.00787333
0.00462698
0.0106694
0.00699643
0.00408529
0.00479286
0.00228627
0.00455461
0.00374294
0.00358516
0.00279447
0.00351918
0.00502259
0.00460692
0.00510021
0.00510404
0.00534949
0.00356083
0.00532015
0.00523241
0.00459035
0.00162126
0.0042551
0.0056983
0.00556415
0.00105147
0.00581017
0.00212884
0.00594204
0.00277705
0.00344594
0.00480651
0.00191821
0.0060693
0.00080819
0.00495677
0.000593666
0.0064489
0.00707601
-0.000303216
0.00718252
0.00141454
0.00610425
0.00543763
0.00473868
0.00551765
0.00465514
0.00178085
0.00653974
0.00639205
0.00677682
0.00540481
0.00308734
0.00286141
0.00343861
0.00139277
0.00371256
0.00553917
0.00439153
0.00405753
0.00384814
0.00476467
0.00702015
0.00508185
0.00510891
0.00513132
0.00205046
0.00395533
0.00433208
0.00626719
0.0040182
0.00509035
0.0047769
0.00413661
0.00560018
0.00912299
0.011039
0.0108383
0.00375019
0.00331276
0.00490902
0.00428305
0.00381845
0.00372698
0.00449715
0.00467184
0.00372846
0.00379039
0.00450489
0.00410735
0.00501833
0.00473956
0.00327061
0.0034494
0.00208859
0.00484054
0.00386954
0.00263103
0.0042718
0.00260684
0.00789322
0.00322432
0.00406155
0.00969075
0.0100488
0.0102322
0.00429939
0.00259591
-0.000185164
-0.00261999
0.0037462
0.00191105
0.000478343
0.00288134
-0.000157401
0.00799816
0.0105759
0.0137822
0.0073039
0.00186211
0.00313326
-0.000394149
0.00287409
0.00582477
0.00672856
0.00502466
0.00725134
0.00559479
SCALARS CoVolArea double 1
LOOKUP_TABLE default
4029.08
4062.15
3503.17
3426.71
3489.29
3095.72
4874.29
3646.48
3615.6
2943.98
3782.4
2978.42
6202.32
4161.81
3850.31
3769.85
4725.51
5170.97
5227.13
4873.94
4376.98
5393.31
4094.96
6030.81
4352.63
4190.33
4446.94
4703.13
3450.46
4309.87
4009.39
4503.7
4447.71
4423.78
4771.81
4893.79
4826.49
2946.16
2974.45
4212.83
4286.66
4641.63
4520.55
4094.16
3362.12
3565.76
4482.42
3763.15
3935.86
4773.61
3720.83
4111.31
3858.5
3899.32
4866.09
3678.41
3960.59
3284.73
4753.45
5395.89
5073.7
4877.5
4406.35
4822.29
4332.97
4672.47
3665.42
4596.26
5887.12
3721.99
4825.18
3753.82
3947.36
4632.99
3030.75
6143.4
4111.93
4126.79
4459.73
3799.85
4621.85
3495.29
4179.56
3374.9
4017.74
3256.15
4502.71
4918.28
4934.3
5296.6
3975.66
4351.31
4262.69
4232.66
4745.39
4375.22
4074.28
3973.25
6047.49
4619.31
3700.87
4272.74
2726.25
4459.24
7467.17
5907.07
4599.79
3336.23
4445.22
3578.7
4629.3
3694.42
4181.65
4712.83
4232.63
4353.64
4548.03
3963.48
4631.32
4664.8
3809.95
4090.67
4344.75
4632.59
4927.24
4311.02
4116.4
4339.69
5102.65
4040.28
4034.97
5414.52
3561.63
6879.27
3723.25
3981.54
3889.75
2797.66
3850.84
3970.86
4182.58
4463.56
3985.12
4455.45
4297.63
4458.71
4199.11
5218.95
4497.73
4163.78
4828.97
4890.53
4661.54
3884.7
4203.09
4302.92
5798.54
4672.57
4303.69
6067.2
3091.09
3642.3
4652.14
3764.14
3777.23
4789.66
3624.55
4704.14
3237.57
3289.12
3953.64
3540.89
3587.58
3564.22
4213.61
3519.19
3544.4
4973.33
3750.71
5080.08
4066.74
4100.14
3533.27
4260.91
4025.07
3752.17
3895.35
4312.43
4682.91
5533.77
5525.09
5291.41
3634.86
4432.02
3802.84
3312.26
3896
3588.55
4746.93
4055.47
4126.72
4218.32
4085.04
3694.98
4149.61
4437.48
4429.92
3626.53
3907.01
4617.32
3544.97
3741.78
3174.17
3321.98
3653.27
5101.44
4869.34
5234.64
5077.27
5306.2
4672.6
4106.56
5268.12
5118.39
5174.43
5019.55
4724.81
5335.72
5063.41
5233.57
3975.61
4658.07
4332.73
4434.95
4283.52
4902.54
4416.76
4520.04
4507.92
4368.74
4918.82
5445.04
5516.08
5455.09
4110.2
4880.79
5358.03
4274.83
3392.91
3418.67
4679.46
4477.28
4497.7
6035.88
5172.82
4781.24
4855.51
5561.01
3899.92
3759.45
4147.39
5147.75
4294.26
4158.95
3753.49
3797.34
4916.23
5844.04
5914.26
5512.32
4856.37
3811.44
3835.18
4534.02
5615.72
4461.76
3763.21
4461.89
3515.66
4918.49
3181.25
3783.59
4125.3
3668.29
6514.59
5276.62
4958.54
5719.63
6104.7
3758.11
4502.88
4999.28
3764.54
4476.98
3886.41
3184.2
4995.83
3868.28
5098.54
3554.96
4108.51
4546.57
4290.48
3975.72
3970.08
4193.68
3458.41
3384.04
3343.1
4778.53
3430.4
4469.38
3398.67
3395.79
4059.14
5153.67
5226.22
5334.79
3283.15
3192.26
4174.37
3399.55
3377.6
3302.77
4063.44
3972.14
3943.36
5518.19
4475.74
4457.61
3786.48
4260.39
4134.17
4273.51
4187.5
4974.58
4940.78
4866.01
3511.54
3926.93
4903.52
5257.37
6206.76
5444.44
3801.67
3896.38
4703.46
3862
4360.79
4100.64
4623.5
4705.81
4599.21
4845.56
4319.44
4150.65
4806.55
5065.92
4213.06
3934.95
3846.26
4412.74
3958.8
4352.26
3965.73
3824.79
4452.91
4897.82
4911.65
4668.73
4501.38
4715.96
5036.4
4491.59
4308.26
4924.41
5211.33
4403.08
4351
3918.36
3437.54
3089.46
3935.26
4471.05
4667.3
5585.38
7686.32
4423.4
3425.79
3360.6
4369.6
4998.38
4098.6
6261.45
5660.24
6246.06
4470.49
4429.64
5503.33
4923.3
4540.11
5100.64
5578.19
4426.76
3856
4485.66
3358.87
3272.08
4153.47
5000.56
3831.87
3666.08
3654.96
4698.83
3840.83
3690.87
3931.69
4207.67
4809.15
5678.51
5330.82
5709.99
4090.62
4460.56
4435.71
4774.97
4393.21
4089.88
3929.99
4189.22
4581.41
3729.57
4279.32
3727.36
4480.16
4392.59
4680.85
4114.84
4199.13
4643.28
4451.05
4637.99
4206.4
4849.15
4601.48
4608.13
3420.27
4121.89
4161.7
5340.71
5117.32
5272.79
4631.09
4491.26
4590.99
3937.48
4032.72
4147.85
4235.11
4387.03
4592.03
5099.07
4668.04
4633.84
4647.44
5079.49
4597.15
4693.79
4706.46
4160.22
4074.2
4004.74
4127.08
4033.38
4707.42
4958.32
4964.18
4404.26
4164.57
4120.4
6576.39
3754.89
3393.48
3401.66
3223.81
4075.44
4038.16
3353.79
3332.88
3377.92
3859.89
6762.35
4434.69
6026.74
4574.8
4020.51
4945.93
2531.67
2610.32
5093.15
4227.09
8947.44
7096.05
6883.81
4064.82
3898.35
3905.62
3834.48
3824.94
3830.28
4072.75
4408.09
2722.09
3976.77
3140.34
3455.04
2738.59
3557.32
4487.06
4296.75
4499.96
4212.2
3979.39
3943.14
4233.25
4104.06
4164.94
4538.28
4513.89
4529.87
3894.81
4349.61
3757.21
3795.18
4154.37
4325.84
4377.79
4631.97
4232.79
4347.34
3854.65
4527.07
3576.65
3700.64
4318.43
3751.14
4580.62
3802.79
4743.52
4864.89
5193.12
4703.2
4161.6
4885.53
3838.3
4770.89
4785.54
3615.94
4049.52
3459.09
4215.03
5309.7
3283.53
4048.68
3298.32
3481.08
4238.69
5997.78
5224.56
5525.95
4623.34
4800.99
4324.35
4536.77
4918.41
4669
4395.06
4326.02
4697.54
4999.35
4505.37
4794.03
4321.54
4291.66
4469.63
5455.89
5381.25
5461.26
2766.12
3489.85
2644.24
2989.04
4147.01
4207.62
4273.74
4056.59
4071.42
3986.61
4542.11
4326.12
4226.39
4119.39
4383.9
4697
4701.09
4725.79
4275.38
5158.92
4714.53
4184.22
4737
5108.63
4170.09
4522.28
3412.39
4552.23
4305.51
4302.4
3836.63
3319.68
3994.02
6542.32
6104.37
6393.42
4156.99
5469.61
5552.81
5097.87
6223.12
3584.14
3495.8
3081.35
3383.58
4137.7
4229.77
5323.89
4159.8
3476.17
3561.33
4537.56
3682.65
4917.47
SCALARS SignedDistance double 1
LOOKUP_TABLE default
198.213
211.611
197.104
201.133
168.474
219.964
289.09
161.249
197.206
218.358
191.442
208.114
226.912
214.241
214.375
218.158
200.157
185.827
180.181
197.85
170.426
214.031
219.234
233.933
197.917
194.643
198.048
194.655
235.825
209.512
183.191
202.797
204.257
205.15
164.585
159.804
254.185
242.56
238.054
210.747
204.535
220.137
213.757
219.299
198.424
208.634
219.39
218.278
216.348
219.711
215.646
204.201
192.083
218.056
217.403
195.313
202.717
206.148
191.829
197.406
205.614
189.936
164.828
175.764
167.677
172.588
199.283
166.812
175.483
173.417
153.64
182.322
216.996
203.383
210.747
226.879
215.359
228.646
229.211
220.808
224.512
226.084
225.363
215.813
201.559
202.537
199.543
201.951
188.053
191.784
178.325
204.48
200.835
195.419
203.968
187.528
191.98
196.597
202.655
197.433
193.525
207.183
247.992
241.225
272.189
182.293
170.342
207.016
174.437
189.476
160.616
178.889
196.633
189.761
189.818
207.393
200.511
211.155
152.694
176.605
184.013
199.734
227.43
148.03
149.847
231.598
204.491
187.388
248.464
214.762
216.849
254.446
248.545
286.755
255.015
204.075
202.062
240.343
216.343
200.741
202.379
202.042
201.856
209.236
210.668
217.987
225.573
195.626
206.849
208.39
180.769
167.31
189.927
220.702
201.508
198.166
207.275
237.027
207.455
235.937
217.062
225.82
204.511
202.188
193.714
227.261
214.337
225.192
206.228
208.092
214.847
208.146
213.142
213.23
216.023
213.905
210.566
223.05
218.439
223.926
222.143
220.449
216.255
215.941
216.408
214.321
216.555
221.604
221.024
224.315
222.153
220.226
190.81
190.72
208.071
198.038
197.866
195.552
200.975
222.379
218.952
217.864
216.638
218.029
216.917
216.493
198.438
196.551
203.283
202.018
194.513
196.596
211.9
201.572
208.972
215.567
217.653
207.505
190.045
202.747
198.38
187.423
188.485
188.197
181.543
212.492
194.707
185.674
191.714
194.824
188.758
195.553
161.1
164.924
162.192
176.263
170.674
171.075
175.205
172.066
178.683
196.415
182.365
182.352
207.702
214.871
193.992
197.21
186.911
188.209
161.52
163.117
162.11
178.972
167.169
176.399
166.478
175.756
179.995
174.827
185.047
148.444
153.469
155.869
187.502
172.025
170.024
182.241
168.086
156.672
221.619
194.734
205.226
228.513
231.423
194.69
190.096
218.024
207.881
208.135
194.2
186.774
216.854
211.908
225.102
221.921
217.391
221.241
224.429
208.36
226.65
229.359
213.23
221.2
221.758
217.088
236.52
225.493
235.427
219.464
223.369
225.204
225.285
221.553
220.437
221.118
222.492
220.661
216.347
230.138
224.903
230.701
216.886
220.521
221.922
226.519
227.352
230.76
207.35
210.768
210.526
207.87
196.065
199.206
194.06
203.673
204.325
199.881
200.552
204.264
204.949
207.999
182.506
183.99
170.829
198.404
189.25
195.618
192.761
195.242
199.695
205.323
202.353
199.656
209.469
204.984
210.74
211.402
198.556
201.159
200.369
190.628
193.26
202.072
197.299
199.372
199.805
208.025
189.826
191.613
196.931
192.799
189.484
190.481
196.583
193.552
196.063
208.396
199.114
196.105
195.87
192.49
206.226
196.365
202.586
198.001
204.912
166.024
173.291
220.318
203.139
211.966
188.882
200.796
258.749
257.287
283.245
224.172
244.075
230.736
254.619
254.442
253.91
214.615
236.512
212.331
165.898
165.111
184.245
171.58
184.906
173.885
188.655
223.482
210.546
170.516
193.607
195.921
194.757
197.099
192.504
181.413
190.071
173.103
173.668
189.783
170.311
164.299
159.137
176.899
161.306
167.822
197.015
192.058
196.533
197.647
192.333
199.569
183.91
188.034
179.492
213.043
209.697
218.423
200.868
209.003
206.687
207.69
208.134
203.484
155.252
160.865
169.454
168.096
162.029
156.929
198.091
176.43
192.626
193.899
191.769
184.009
201.804
207.28
177.633
195.543
239.953
214.133
225.935
151.6
144.719
154.507
143.92
152.061
147.143
157.562
209.844
203.292
193.482
230.986
217.832
245.191
176.813
193.775
175.412
184.389
184.814
210.826
220.444
208.663
253.071
241.644
225.857
238.342
246.658
207.128
228.379
250.21
243.647
232.355
245.154
259.799
262.475
286.138
274.672
249.936
263.387
245.813
249.745
272.24
255.148
285.017
276.071
267.338
205.449
202.095
212.334
207.732
203.092
202.726
201.84
249.578
246.058
211.995
229.609
221.431
238.665
227.423
196.39
200.439
196.735
202.807
202.718
205.045
207.659
203.838
204.757
208.186
205.684
202.735
198.663
205.535
201.073
198.365
202.451
200.37
199.571
212.341
206.244
212.742
203.338
211.472
221.547
223.216
210.195
211.386
227.871
222.813
223.989
212.524
220.108
209.336
188.034
203.883
200.428
190.927
201.928
211.117
213.3
211.337
206.739
204.419
211.195
198.819
203.688
213.868
216.153
204.652
210.28
206.037
188.435
171.539
180.856
186.595
189.094
157.825
183.754
167.568
156.062
160.543
200.165
194.063
199.659
203.49
191.796
173.878
182.438
184.637
252.668
234.092
244.505
238.436
212.687
202.64
197.277
198.968
206.788
213.424
195.43
201.617
198.901
197.482
197.55
207.424
199.157
203.531
199.874
208.063
203.882
199.361
205.378
249.958
254.582
250.986
238.742
218.819
175.092
206.47
192.102
204.535
220.317
210.15
232.894
213.219
227.179
230.472
231.715
232.237
234.29
200.645
200.115
202.245
214.765
225.721
230.568
238.85
235.805
214.607
205.051
232.146
218.922
237.125
