# vtk DataFile Version 4.2
vtk output
ASCII
DATASET POLYDATA
POINTS 642 double
-224.496 334.05 91.4169
216.507 324.167 84.0491
-231.813 -395.18 114.087
221.683 -389.405 117.07
-3.1474 -312.239 511.889
-3.95277 151.931 449.494
0.686976 -244.992 -183.084
-1.66899 222.997 -312.71
370.295 8.29772 -135.014
326.074 -45.4503 315.539
-384.49 9.6609 -138.848
-343.117 -46.812 319.145
-300.469 173.723 199.01
-196.912 72.0667 429.424
-129.333 305.606 275.876
120.072 302.634 273.994
-0.492072 391.257 83.6596
137.6 325.747 -144.335
-140.139 331.244 -147.122
-240.251 120.523 -265.763
-406.066 214.799 -66.3589
-409.189 -31.5893 70.9623
191.745 68.66 422.384
291.799 159.616 197.639
-202.47 -212.053 460.639
-1.8232 -40.2254 528.772
-340.185 -245.149 -29.1013
-338.933 -260.033 235.35
-3.98377 23.6501 -334.762
-214.857 -154.235 -229.476
388.808 207.764 -62.9289
234.819 121.172 -266.202
325.147 -255.508 230.933
190.952 -210.248 453.835
132.038 -428.066 351.288
-136.902 -431.759 355.149
-2.68203 -445.664 167.739
-152.488 -348.928 -96.5081
145.239 -348.722 -96.4732
210.976 -154.848 -223.381
330.328 -239.869 -30.5363
398.538 -29.7141 66.9059
-279.784 270.218 142.403
-226.707 265.886 244.184
-180.381 341.775 193.943
-282.363 18.0633 385.399
-269.328 115.859 334.533
-336.096 53.3798 279.049
-66.6841 240.775 368.403
-158.043 197.853 364.013
-92.6823 119.299 459.722
-84.3281 372.119 192.38
-115.638 386.27 92.683
59.7721 239.643 366.122
-0.628901 308.148 289.319
109.173 384.559 89.5295
75.9766 371.119 192.784
169.51 335.49 191.824
-71.6328 385.936 -29.3989
-207.841 332.067 -37.5772
201.945 327.71 -33.7292
67.4162 384.121 -26.6877
-73.842 294.023 -244.539
-2.43779 353.658 -161.267
68.2883 291.992 -243.017
-302.55 288.391 -108.981
-337.443 275.713 -25.3553
-117.276 179.054 -314.039
-205.261 244.034 -222.589
-425.412 115.798 -116.372
-350.838 178.095 -188.709
-338.291 80.2977 -215.649
-385.894 198.985 33.0045
-415.439 7.73284 -45.2262
-437.234 117.61 -24.7232
-375.063 85.0222 110.795
-382.958 -56.286 211.47
211.473 258.45 241.771
267.436 262.12 129.358
84.7489 117.618 453.924
151.093 193.617 359.94
321.535 53.4684 275.813
260.312 111.935 329.386
271.749 15.0307 380.267
-96.2195 27.5213 505.594
-3.91237 65.094 508.225
-286.401 -118.972 392.417
-216.628 -42.9993 453.53
-1.6137 -195.375 521.728
-106.886 -137.102 511.105
-119.13 -262.365 508.825
-392.573 -155.183 164.734
-355.2 -154.824 282.606
-370.896 -133.151 -88.6681
-396.006 -140.517 25.534
-298.826 -343.128 176.601
-363.577 -265.615 103.841
-299.335 -329.809 43.2541
-238.209 -1.38154 -255.96
-308.457 -82.7158 -191.711
-2.05342 111.548 -359.312
-106.474 85.8959 -333.39
-142.276 -197.356 -231.226
-122.763 -69.3005 -287.07
3.54442 -73.4119 -257.269
198.104 235.632 -217.432
112.455 176.67 -310.947
322.762 270.988 -20.4377
289.884 284.145 -106.236
328.677 74.1085 -211.176
337.35 174.424 -181.966
405.513 108.551 -110.194
287.142 -336.188 176.363
236.859 -353.328 304.324
172.951 -422.227 250.562
276.851 -111.266 385.869
274.027 -236.403 359.241
340.841 -151.797 276.068
66.7072 -387.68 450.588
177.219 -324.205 430.949
112.41 -260.766 504.711
62.4984 -474.912 263.152
113.816 -436.588 135.188
-72.2441 -390.358 453.935
-2.35809 -463.932 371.818
-119.4 -438.202 137.439
-67.0319 -478.166 263.264
-181.077 -428.428 251.448
111.237 -391.745 16.468
183.889 -378.742 -0.472374
-188.948 -385.643 1.14868
-116.905 -390.557 17.501
114.373 -289.422 -159.198
0.606804 -306.666 -87.9503
-119.018 -288.167 -159.073
246.916 -312.034 -72.4162
289.077 -323.011 40.4541
130.721 -198.074 -231.511
180.133 -267.336 -175.787
361.978 -130.835 -85.7128
287.223 -204.767 -141.652
302.448 -82.2868 -186.658
348.473 -260.152 102.869
401.237 2.32468 -39.8009
386.892 -135.093 16.9472
373.481 -153.681 166.822
365.065 -57.0377 205.795
99.1648 -136.637 508.867
210.873 -43.4329 448.481
88.2902 26.1173 499.356
-249.135 -358.469 308.568
-186.061 -327.732 435.401
-287.491 -238.62 366.687
-183.764 -270.855 -180.768
-252.851 -315.361 -73.7191
-294.272 -206.731 -145.105
235.168 1.6881 -246.964
113.411 -74.2209 -285.885
100.29 89.6168 -330.653
359.798 76.3327 108.651
414.538 110.585 -24.308
366.823 195.256 32.7987
-255.968 305.508 116.502
-230.307 312.982 175.506
-201.253 344.862 148.232
-263.958 228.76 225.439
-252.175 274.051 201.553
-293.535 233.771 163.517
-156.529 329.958 234.828
-207.04 306.719 221.638
-180.488 291.295 261.988
-315.468 -13.6804 354.678
-314.141 36.6306 334.599
-342.938 4.25835 300.896
-240.144 94.1784 383.899
-278.387 68.188 363.37
-244.537 46.1963 409.104
-323.713 102.66 249.285
-305.384 86.5041 309.712
-287.902 141.119 275.997
-34.1503 195.84 406.951
-78.0587 178.328 413.658
-49.1968 137.499 459.53
-141.681 255.958 322.551
-112.476 224.389 368.31
-97.1055 272.853 326.316
-142.034 96.8724 448.221
-127.639 155.869 409.82
-178.703 129.242 401.551
-243.193 191.951 285.177
-214.954 157.591 350.39
-192.258 233.955 304.33
-154.022 369.659 148.481
-169.943 366.553 96.161
-110.667 346.358 233.947
-131.632 362.411 195.752
-69.4909 397.773 86.5714
-102.208 384.597 145.077
-48.9195 385.094 139.528
27.4003 196.046 406.209
-2.81087 241.069 370.217
66.3495 308.984 284.264
32.9342 275.823 332.948
89.3797 271.031 323.291
-38.2038 275.43 333.902
-73.6815 308.696 286.838
158.279 361.429 91.6623
144.148 364.556 145.777
189.974 337.34 145.982
44.5304 386.999 139.966
93.2227 382.343 142.81
65.1771 396.59 86.8564
146.39 325.118 232.492
122.618 358.179 194.718
100.621 343.875 233.134
-44.3483 344.755 237.214
41.1607 346.744 238.628
0.0486427 368.954 191.679
-150.611 373.033 34.2462
-217.661 332.76 22.8603
-42.044 397.919 29.3965
-94.0795 392.709 33.1925
-175.275 334.738 -92.2148
-126.933 370.531 -30.2546
-103.901 365.551 -91.1941
212.478 327.477 18.5064
144.696 370.055 32.6463
98.7744 361.105 -88.9974
124.625 367.414 -26.5203
173.765 327.241 -91.339
90.5951 390.851 35.0998
38.5783 398.72 30.2825
-37.9187 262.288 -283.038
-1.86605 297.492 -249.586
33.794 261.586 -282.469
-69.5498 347.663 -157.597
-37.8585 327.762 -205.27
-107.11 317.527 -199.282
100.795 313.977 -196.862
33.1875 326.904 -204.932
63.9492 345.048 -156.956
-2.85051 388.905 -31.0038
32.0116 373.448 -98.045
-37.9446 375.098 -98.3302
-287.011 308.369 -38.3998
-279.198 290.085 16.6162
-229.64 298.601 -122.359
-270.329 315.02 -76.656
-374.183 252.28 -42.8619
-326.599 291.937 -61.3376
-358.914 259.292 -88.566
-59.801 204.14 -317.729
-96.638 242.319 -285.445
-225.947 182.2 -248.813
-155.146 215.436 -277.35
-172.515 148.8 -301.995
-133.344 273.24 -242.197
-175.899 291.783 -190.192
-407.495 73.2209 -131.64
-386.943 99.5539 -172.656
-367.742 48.2659 -180.755
-384.306 199.881 -129.382
-395.454 145.762 -157.974
-424.442 161.129 -92.1703
-303.356 103.816 -241.715
-352.891 127.205 -210.807
-311.624 151.131 -231.624
-266.159 268.605 -172.033
-293.169 216.205 -206.573
-330.164 240.773 -154.31
-307.863 260.737 50.216
-400.059 211.224 -16.4537
-368.316 238.641 4.40717
-330.59 224.108 75.4657
-342.288 186.208 95.0542
-405.763 8.989 -91.3307
-430.623 76.8382 -79.7587
-420.191 70.2742 5.39026
-433.155 80.5363 -37.0672
-413.778 -4.85091 11.012
-445.516 119.416 -63.308
-435.156 157.618 -43.6182
-362.684 2.42566 250.423
-366.231 -49.8701 268.207
-346.539 119.045 155.264
-354.516 57.6483 217.222
-395.93 -51.3398 145.038
-377.552 6.3923 180.714
-394.881 30.4399 83.7612
-419.978 157.24 6.87725
-416.236 114.686 27.9201
-394.239 150.256 57.0864
216.951 305.339 171.93
247.747 295.214 106.382
168.922 285.686 259.08
194.28 300.516 217.946
279.022 219.9 151.478
235.493 268.73 196.378
247.03 215.174 223.842
40.7357 136.739 456.538
70.9847 177.924 410.055
172.819 126.784 395.307
121.73 154.66 404.161
136.389 94.7139 440.098
105.611 221.702 364.725
133.186 251.844 319.68
326.281 5.51366 297.921
301.336 34.91 329.88
301.797 -13.2701 351.119
279.169 132.533 275.348
294.132 84.4144 304.782
311.01 98.6543 248.52
235.834 42.261 403.508
268.209 65.2875 357.489
231.652 90.9991 377.813
182.991 226.842 302.308
207.382 152.939 346.412
232.982 182.086 286.387
-49.9918 94.9533 490.218
-4.16707 109.199 483.982
-144.166 51.4844 471.891
-96.2921 73.8339 487.24
-3.82308 17.754 523.723
-51.6814 46.3435 512.72
-51.4998 -2.26217 524.339
-321.779 -76.0661 356.385
-290.727 -43.3465 391.205
-211.415 -127.202 452.524
-255.613 -79.5385 425.709
-247.419 -167.616 422.986
-252.917 -11.4212 422.456
-210.54 16.9498 445.049
-1.94503 -258.286 519.579
-64.1829 -237.427 520.338
-60.0665 -290.465 513.019
-52.3826 -81.9701 524.063
-60.2139 -164.796 520.542
-0.897231 -109.596 528.728
-162.837 -240.188 491.281
-116.319 -213.968 511.356
-152.505 -187.402 488.795
-155.654 -8.19547 481.443
-157.884 -87.4362 486.346
-100.469 -41.6748 511.939
-377.114 -101.674 246.67
-353.796 -98.3925 301.247
-400.549 -101.838 127.467
-395.246 -104.52 190.68
-348.987 -209.588 262.096
-378.887 -153.199 223.313
-371.836 -207.863 196.82
-378.016 -67.7316 -113.396
-398.496 -71.2171 -64.1748
-372.145 -193.859 -1.88069
-389.813 -136.217 -37.773
-356.199 -188.262 -62.0313
-409.119 -79.855 -11.0441
-410.092 -90.8491 50.1686
-268.336 -373.105 145.531
-305.819 -341.057 107.612
-269.192 -365.611 78.7355
-357.69 -265.892 163.445
-336.955 -305.513 136.69
-322.478 -304.594 206.579
-323.053 -289.675 6.23821
-335.798 -300.895 74.1938
-355.749 -259.355 41.9959
-399.391 -156.71 96.0417
-384.99 -210.252 70.8987
-386.178 -214.564 131.6
-326.264 7.32179 -205.224
-347.195 -36.3044 -167.98
-245.23 74.7956 -265.289
-295.842 45.5116 -237.676
-262.208 -122.63 -212.931
-278.691 -42.1505 -224.488
-226.46 -85.8744 -246.705
-1.88112 164.026 -340.833
-58.5663 143.713 -344.325
-48.5576 55.352 -340.318
-54.6583 96.4242 -351.325
-2.65248 73.2324 -350.414
-118.534 122.543 -335.616
-169.181 106.73 -312.219
-107.635 -210.412 -215.831
-103.854 -152.657 -244.257
1.52005 -161.902 -219.532
-168.384 -120.904 -263.075
-137.884 -138.582 -257.781
-169.845 -182.197 -240.18
-2.45812 -11.9037 -312.374
-87.7362 -64.3725 -281.638
-53.15 -10.3564 -314.55
-166.354 51.1831 -291.139
-102.726 10.3952 -310.308
[...]
POINT_DATA 642
SCALARS Mean_Curvature double 1
LOOKUP_TABLE default
0.00571573
0.00356593
0.00652772
0.00572837
0.0108918
0.00473853
-0.0145575
0.00710339
0.00247628
0.00606771
0.00419827
0.00611038
-0.00216617
0.00384074
0.00410875
0.00467366
-0.00212371
0.003754
0.00400577
0.00278368
0.0128959
0.00578598
0.00418936
-0.000184828
0.00379006
0.00462585
0.00447755
0.00342413
0.00971655
0.00287429
0.013439
0.00770313
0.00368419
0.00332722
0.00490707
0.00495027
-0.00101796
0.0143775
0.0153504
0.00402438
0.00478577
0.00780261
0.00535975
0.00537603
0.00766143
0.00579151
0.0046255
0.00482537
0.00637614
0.00392987
0.00559201
0.0079448
0.00370134
0.00607394
0.000547496
0.00536044
0.00866449
0.00762118
0.00410985
-0.00122767
-0.000890362
0.00362482
0.00598713
0.00604861
0.00603593
0.00706284
0.00590057
0.00458745
0.00168592
0.0128703
0.00657924
0.00472778
0.00831127
0.0026753
0.0114821
-0.00139772
0.00217502
0.00481613
0.00464274
0.0043373
0.00385713
0.00562076
0.00491467
0.00573917
0.00745027
0.00716893
0.00251731
0.00507759
0.000842252
0.00415605
0.010754
0.00387056
0.00402735
0.00552966
0.00152721
0.00463771
0.00690059
0.00432634
0.00109304
0.00423309
0.0160331
0.00495107
0.00649249
0.0119128
-0.00740612
-0.000678479
0.00428299
0.00564934
0.00600477
0.00775246
0.00724174
0.00898114
0.00452838
0.00407449
0.00206941
0.00427765
0.00578261
0.00449009
0.00598809
0.00659373
0.0106753
0.00682673
0.00777778
0.00695766
0.00650578
0.00714361
0.00774605
0.00387005
-0.0010423
0.00388857
0.00609631
-0.00188794
-0.000626336
-0.0152101
-0.00118817
0.00598416
0.00435986
0.0119655
0.00644047
0.00571491
0.00560036
0.00523905
0.00690039
0.00257082
0.00570171
0.00432174
0.00221381
0.00463456
0.00647334
0.00634403
0.00468513
0.00601993
0.00493667
0.00976465
0.00542213
0.00551179
1.43649e-05
0.0136291
0.00469212
-0.00249593
0.00684061
0.007918
0.00522921
0.0069522
0.00734352
0.00379674
0.00759997
0.00439036
0.00765297
0.00766874
0.00511603
0.00509572
0.00545845
0.0052369
0.005089
0.00574524
0.00567735
0.00304535
0.0051522
0.00293214
0.00165538
0.00240227
0.00640143
0.00428864
0.00563724
0.00518285
0.00337955
0.000743586
0.00240052
0.000438959
0.00198133
0.00278756
0.00795135
0.00468386
0.0077804
0.00830931
0.00947501
0.00849754
0.00148147
0.00267764
0.00339875
0.00301503
0.00501765
0.0046267
0.00396554
0.00290492
0.00296895
0.00751877
0.00667814
0.00440804
0.00704004
0.009118
0.00751066
0.00800562
0.00754236
0.00181543
0.00485514
0.0022385
0.00480238
0.0010463
0.005157
0.00662654
0.00232941
0.00266736
0.00540279
0.00124793
0.00578648
0.00421036
0.00326652
-0.000965657
0.00667501
0.00679237
0.00613918
0.00581152
0.00663423
0.00400581
0.00505656
0.0059207
0.00529135
0.0056134
0.00394436
0.0022935
0.00475993
0.00502248
0.00870598
-0.00404782
-0.00392998
0.0125923
0.0128452
0.0154864
0.0086856
0.00514815
0.00616824
-0.000710741
0.00503032
0.00619933
0.00552279
0.00389532
0.00424258
0.00845096
0.00578947
0.00566414
0.010061
0.0078858
0.008034
0.0131933
0.00856286
0.00802061
0.00702399
0.00659749
0.000165917
0.0078716
0.00665219
0.0012376
-0.0026236
0.0029931
0.00757961
0.00122294
0.00763303
0.000800666
0.0223363
0.0133288
0.00437526
0.00477101
0.000477251
0.00294756
0.00195258
0.00117074
-0.00144024
0.0096751
0.00614341
0.00677728
0.00643791
0.0047598
0.00470026
0.00766496
-0.000835012
0.00714614
6.65147e-05
0.00578678
0.00221238
0.00272807
0.000998523
0.00273277
0.00537692
0.00407145
0.00509144
0.00546241
0.00611414
0.00385333
0.00581145
0.00407203
0.00536934
0.00558671
0.00497177
0.00280276
0.00252043
0.00158712
0.00792839
0.00678649
0.00450053
0.00690776
0.00777449
0.00820825
0.00804817
0.00626424
0.00508269
0.000682257
0.00499218
0.00100604
0.00589971
0.00477874
0.00310833
0.00517551
0.00705792
0.00316413
0.00201171
0.00430042
0.011067
0.00744106
-0.000630741
0.00285774
0.00225232
0.00449248
0.00539344
0.00518906
0.00176389
0.00865715
0.0030227
0.00436233
0.00332255
0.00408013
0.00434584
0.00155442
0.00668481
0.00317917
0.00586001
0.00542158
0.00496018
0.00692113
0.00571107
0.00549458
0.00640156
0.00370814
0.00435854
0.00586212
0.00478163
0.00494999
0.00598614
0.00776699
0.0035923
0.00213246
0.00353496
0.00468516
0.00333161
0.00177837
0.00367333
0.00472804
0.00678748
0.00398663
0.0121728
0.00695037
0.0133323
0.0118067
0.000440196
0.000386802
-0.00365527
0.00791919
0.00673611
0.0133772
0.00352157
-0.0027944
0.00805946
-0.00372415
0.00129738
0.00489101
0.00581126
0.00535272
0.00266034
0.00526598
0.00643315
0.0050533
-0.000783414
-0.000193002
0.00851917
0.00940188
0.0148124
0.0117643
0.0093199
0.00655405
0.00562433
0.0105071
0.00682192
0.00826003
0.00899213
0.00913672
0.00963337
0.00775241
0.00566088
0.00728973
0.00647284
0.00703515
0.00400358
0.00578755
0.00429037
0.00391998
0.00458447
0.0045476
0.0110714
0.00390731
0.00707415
0.00470593
0.00351056
0.00417413
0.00505499
0.00307671
1.79018e-05
0.00322865
0.00374489
0.00412696
0.00712128
0.00516508
0.00664094
0.00611166
0.0059278
0.00527283
0.00983477
0.00845962
0.00747574
0.00406632
0.00448939
0.00536595
0.00315308
0.00303539
0.00941515
0.00557731
0.00512237
0.00484366
0.00439499
0.00765803
0.0074639
0.00550452
0.00759063
0.00578376
0.00800169
0.00499249
0.00400169
0.00319453
0.00210113
0.00220284
0.00678046
0.00463338
0.00881363
0.00633986
0.00809942
0.012433
0.0143409
0.00728559
0.00808597
0.00297266
-0.00170364
0.00844992
0.0119201
0.0130001
0.00755226
0.00360826
0.0107457
0.00419099
0.0115283
0.0138142
0.00376414
-0.00147215
0.0167421
-0.0151831
0.0165845
-0.000241471
0.0137118
0.00916221
0.00519435
0.0135699
-0.000746839
-0.00757544
0.00599335
0.00573223
0.00385006
0.00516175
0.00460526
0.00472788
0.0044163
0.0054808
0.00602571
0.00122165
0.00727367
0.00525566
0.011977
0.00735716
0.0139601
0.0121063
0.00493096
0.00535939
0.00308177
0.00509029
0.00395509
0.00374864
0.00243731
0.00372382
0.00583399
0.00476052
0.005625
0.0058457
0.00615953
0.00376319
0.00613177
0.00617791
0.00518734
0.0016182
0.00504373
0.00650882
0.00638289
0.00206727
0.00709707
0.00138879
0.00637818
0.00270287
0.00329599
0.00615537
0.00178605
0.00655838
0.000391856
0.00594011
-0.000565022
0.00784171
0.00762855
-0.00144274
0.0066537
0.00194092
0.00665696
0.00628279
0.00524186
0.00638209
0.00519706
0.00221845
0.00777191
0.00781667
0.00826872
0.00600433
0.00295553
0.00287003
0.00373988
0.000885647
0.00408938
0.00644978
0.00472461
0.00457881
0.00411762
0.00538084
0.00892358
0.00639935
0.00582587
0.00588304
0.00231474
0.0041918
0.0043302
0.00652316
0.00493472
0.00565856
0.00503448
0.00447213
0.00378713
0.0146469
0.0118103
0.0158501
0.00532462
0.00308128
0.00565581
0.0047683
0.00352452
0.00640926
0.00498799
0.00509111
0.00396536
0.00403449
0.00506063
0.00406477
0.00569891
0.00483645
0.00306837
0.00360619
0.00226484
0.00493277
0.00389175
0.00113165
0.00593614
0.000184525
0.0108187
0.00462847
0.00670475
0.0111973
0.0150335
0.0126165
0.00369605
0.0030352
-0.000211012
-0.00407468
0.00396271
0.00213355
0.000153202
0.00278912
0.000301442
0.00956651
0.0135043
0.0195342
0.00785384
0.0013082
0.00325097
-0.00173972
0.00248933
0.00653269
0.0072903
0.00444867
0.00884737
0.00560909
SCALARS CoVolArea double 1
LOOKUP_TABLE default
3565.96
3604.03
2988.21
2925.1
2846.13
2609
4681.94
3083.06
3160.37
2425.73
3314.9
2428.9
6055.8
3547.18
3164.25
3087.77
4165.27
4582.46
4679.33
4124.99
3361.41
4806.37
3491.05
5859.52
3766.8
3436.02
3819.2
4100.98
2728.68
3623.47
2986.01
3638.35
3834.01
3878.12
3960.43
4117.6
4559.13
2018.96
2031.94
3572.34
3659.84
3968.56
3860.35
3423.98
2578.64
2884.06
3861.2
3143.67
3312.73
4206.17
3103.64
3361.43
3135.23
3270.48
4372.01
2955.56
3155.26
2515.66
4066.02
4911.57
4614.68
4191.13
3704.95
4088.86
3628.36
3815.44
3019.87
3864.49
5262.35
2756.12
3927.38
3031.79
3208.75
4025.62
2095.72
5793.92
3559.51
3497.08
3838.84
3226.86
4046.04
2858.61
3525.43
2690.52
3229.41
2481.95
3923.4
4274.9
4468.01
4687.11
3117.42
3649.36
3664.57
3568.15
4087.61
3714.47
3268.58
3333.84
5647.91
4053.61
2728.86
3560.87
2003.9
3502.13
8326.51
5399.54
3864.79
2627.78
3533.08
2820.4
3763.32
2769.92
3514.78
4017.57
3612.26
3772.54
3843.31
3341.08
3904.83
3840.02
2947.26
3202.84
3541.28
3888.22
3995.65
3496.24
3199.58
3721.14
4804.01
3332.25
3256.8
5271.28
3068.71
7009.85
3294.21
3250.06
3244.36
1988.98
2974.83
3291.29
3456.08
3869.61
3197.39
3815.64
3595.41
3827.49
3708.76
4621.49
3777.51
3440.72
4109.7
4081.05
3932.21
2921.98
3496.69
3586.14
5481.07
3715.18
3635.06
5798.85
2247.49
2920.54
4078.69
2971.02
3021.71
4234.42
2887.77
4281.64
2501.89
2539.45
3249.17
2879.1
2917.54
2924.23
3564.33
2840
2880.49
4570.52
3121.19
4562.99
3535.15
3516.91
2893.2
3584.07
3399.8
3111.08
3348.89
3811.77
4150.78
4951.95
4949.47
4667.81
2860.83
3802.44
3050.98
2505.71
3225.9
2818.39
4154.08
3515.03
3545.35
3577.65
3492.87
3061.22
3575.27
3849.3
3842.97
2882.59
3207.03
3982.32
2770.02
3041.3
2448.02
2523.66
2871.96
4461.97
4162.73
4527.25
4546.3
4868.89
3997.92
3404.98
4829.11
4608.11
4539.83
4541.62
4158.42
4773.63
4578.5
4806.13
3247.97
3962.3
3633
3722.86
3577.68
4191.07
3730.39
3870.66
3883.92
3679.94
4246.19
4734.44
4773.21
4694.6
3430.98
4512.82
4834.34
3523.79
2439.14
2448.13
3690.29
3809.29
3802.14
5499.14
4608.9
4061.41
4200.59
4970.03
3220.75
2920.36
3523.66
4281.89
3390.67
3176.19
3003.88
2882.05
4108.04
5070.33
5086.09
4590.59
4418.91
2806.24
3154.05
4013.37
5360.73
3894.16
2951.73
3814.17
2742.61
4316.67
2117.96
2661.05
3559.7
3045.81
6274.6
4843.1
4515
5438.17
5785.31
2729.85
3790.36
4316.62
2993.5
3831.99
3192.84
2451.8
4770.58
3253.29
4695.4
2929.13
3541.86
3999.23
3806.34
3467.75
3361.7
3534.82
2831.45
2704.13
2674.88
4240.45
2767.54
3959.97
2739.95
2721.94
3402.51
4517.93
4600.24
4734.37
2525.95
2481.98
3479.54
2673.74
2598.32
2505.84
3254.53
3333
3274.85
5074.36
3879.4
3971.75
3094.66
3567.49
3491.9
3612.35
3417.74
4291.01
4398.55
4306.54
2721.83
3220.72
4382.34
4527.74
5646.11
4683.26
3139.42
3270.19
4067.23
3210.03
3807.78
3461.87
3963.77
4116.68
3937.35
4252.91
3676.98
3566.07
4171.06
4397.71
3560.65
3223.66
3202.16
3679.03
3242.96
3730.91
3331.32
3124.15
3762.49
4137.66
4114.84
3815.66
3921.27
4148.57
4455.66
3928.46
3763.79
4409.55
4595.36
3663.45
3480.15
3164.44
2494.92
2249.98
2985.44
3644.29
4561.27
5753.7
8596.75
3530.17
2604.89
2454.76
4084.17
4761.56
3302.79
5881.81
5018.73
5599.72
3778.47
3759.27
4872.26
4331.95
3771.82
4563.14
4999.87
3916.41
3173.08
3510.94
2420.76
2348.79
3404.05
4254.68
3182.18
2821.41
2955.61
3861.38
2965.62
2888.35
2975.64
3361.51
3932.2
4869.66
4415.24
4928.37
3440.93
3817.22
3854.46
4124.89
3754.87
3453.51
3140.48
3514.76
3782.59
3091.17
3691.71
3121.34
3811.78
3841.14
4213.9
3537.13
3601.21
3994.68
3682.62
3855.82
3425.52
4064.13
3860.16
3923.17
2676.89
3271.04
3340.19
4580.46
4282.38
4449.8
4022.19
3868.74
3650.05
3223.54
3422.79
3456.9
3594.52
3604.46
3805.28
4237.38
3904.42
3937.86
3893.68
4225.66
3937.21
4062.86
4161.94
3522.31
3355.64
3456.89
3366.17
3286.86
3776.52
3819.18
3809.87
3385.83
3348.82
3544.16
6804.4
2937.7
2536.46
2489.44
2410.08
3435.8
3159.37
2626.78
2451.88
2476.26
3154.87
7106.82
3820.38
5994.37
3978.12
3506.97
4638.83
1776.23
1920.82
4814.01
3776.37
9595.36
7196.19
6926.28
3467.28
3279.22
3059.62
3168.88
3188.29
3174.15
3334.89
4189.91
2001.47
3207.15
2249.53
2655.46
1855.41
2594.66
3889.23
3646.56
3908.66
3506.86
3343.03
3342.39
3676.33
3481.61
3468.01
3697.66
3695.15
3702.83
3210.97
3671.37
3067.17
3087.88
3417.77
3761.31
3708.64
3958.5
3527.98
3673.82
3158.26
3896.83
2920.13
3128.42
3632.76
3075.39
4102.57
3188.11
4187.31
4090.53
4557.57
3901.76
3457.51
4387.83
3133.46
4152.77
4046.61
2915.67
3340.17
2743.34
3569.07
4793.87
2547.2
3254.98
2519.51
2799.99
3581.96
5411.16
4509.87
4835.31
4013.8
4015.91
3645.11
3905.7
4265.37
3887.79
3545.28
3491.26
3974.39
4230.72
3903.18
4145.12
3696.89
3668.84
3749.82
4620.54
4532.28
4692
2138.14
2472.95
1781.12
2032.04
3316.34
3622.51
3550.88
3434.35
3398.46
3090.99
3921.54
3661.02
3605.75
3485.82
3687.03
3821.67
3894.86
3923.06
3665.49
4605.46
4198.5
3598.64
4126.49
5033.8
3368.02
4053.98
2509.26
3749.5
3424.71
3439.91
2865.15
2372.62
3296.39
6026.8
5593.53
6120.87
3633.72
5049.71
5279.52
4687.88
5930.97
2769.74
2423.66
2084.56
2620.08
3463.69
3640.78
5056.07
3659.9
2764.55
2590.72
3897.47
2735.71
4308.59
SCALARS SignedDistance double 1
LOOKUP_TABLE default
160.921
173.878
159.609
162.182
139.938
178.709
256.546
129.864
159.475
176.511
155.057
167.939
183.822
173.035
174.138
176.92
162.158
151.066
146.197
167.665
143.101
173.928
176.814
188.953
160.736
157.676
159.551
157.047
196.979
171.042
153.66
172.429
165.002
166.282
132.587
128.646
214.465
201.521
197.966
170.728
164.869
178.574
174.687
178.173
159.668
167.89
176.771
176.08
174.693
177.185
174.229
165.735
155.743
175.35
175.879
157.881
164.203
166.117
156.591
162.19
170.04
154.566
132.495
142.154
134.975
142.382
162.877
134.806
143.74
143.394
123.685
147.638
178.03
166.752
173.653
184.595
174.1
186.159
189.022
178.585
181.03
182.221
181.344
173.852
162.702
163.721
160.844
162.715
152.132
154.91
148.097
165.722
161.977
157.272
165.779
150.596
154.516
158.165
166.185
159.323
163.648
170.7
204.393
201.505
232.769
150.328
137.684
169.594
142.724
153.822
128.995
147.187
158.441
153.09
153.264
167.189
162.152
170.618
123.172
143.544
152.366
167.103
191.29
118.964
122.194
195.099
172.506
152.165
203.597
176.74
183.821
209.898
203.022
250.068
209.638
163.876
162.472
198.059
178.91
161.465
162.45
162.92
162.757
171.562
170.397
177.435
182.313
158.071
166.879
168.567
145.652
135.33
153.221
187.507
162.115
158.994
168.211
199.021
169.62
192.184
177.909
184.944
166.893
162.923
155.499
186.042
173.958
184.788
166.506
168.147
174.23
167.796
171.781
172.026
173.883
172.126
169.537
180.049
175.883
180.908
181.036
179.696
175.18
173.691
174.036
172.417
175.185
180.153
179.094
181.572
179.77
177.713
153.183
153.568
168.965
159.845
161.594
158.391
162.393
181.184
176.388
176.905
174.466
175.466
174.672
175.523
160.127
157.809
163.789
163.766
156.589
160.018
171.052
162.309
168.701
174.478
177.301
167.746
153.265
166.109
162.738
151.323
153.362
151.698
146.171
176.475
157.431
149.741
155.181
159.934
152.016
160.252
129.593
132.891
130.417
142.468
137.975
137.936
141.308
139.234
144.41
159.908
147.292
147.466
172.631
176.706
161.403
167.172
154.695
157.543
135.519
131.815
130.301
147.683
134.525
145.964
133.817
142.523
145.444
141.795
149.781
118.494
127.239
130.332
152.982
142.085
140.316
151.942
138.87
126.467
183.549
160.398
168.12
188.514
189.016
158.246
157.126
177.526
170.528
170.876
164.692
156.851
175.256
171.48
181.609
179.19
176.3
179.356
183.013
172.52
185.02
188.971
172.501
182.965
179.912
175.682
193.007
182.909
191.841
177.735
181.616
182.075
182.789
179.201
177.329
178.043
179.535
177.712
174.519
185.699
181.031
186.362
174.615
177.362
178.546
182.799
183.926
186.9
167.591
170.48
170.426
167.723
158.521
160.847
156.602
164.361
164.772
161.815
161.71
165.136
164.987
168.001
148.231
149.687
141.157
161.696
153.113
159.78
158.076
159.398
161.869
166.475
164.455
161.901
169.794
165.58
170.769
171.933
160.328
161.906
162.601
153.108
156.16
164.076
159.178
161.312
162.729
169.274
152.729
154.415
158.84
155.409
152.542
153.529
158.129
155.781
157.894
169.492
161.292
158.267
158.708
155.357
172.442
160.19
163.555
159.688
165.909
134.949
146.259
182.845
169.745
175.607
158.706
166.391
214.118
212.432
245.959
188.557
201.734
195.185
211.584
211.174
215.23
176.574
202.119
176.912
133.368
133.455
151.343
138.12
155.153
140.399
157.288
185.167
174.284
143.293
161.486
161.807
163.018
166.266
155.585
148.079
154.355
141.853
141.384
155.758
144.55
133.933
127.712
146.768
129.265
135.507
158.665
155.005
158.541
159.782
154.63
161.011
151.67
151.222
146.012
171.979
169.271
177.085
162.601
169.032
167.121
167.579
168.235
164.51
126.335
129.731
139.507
135.921
130.661
126.338
162.392
145.19
157.58
156.447
155.362
149.416
165.587
169.407
148.451
159.649
199.653
178.267
188.695
123.304
116.378
126.291
115.654
122.352
118.506
128.47
174.518
168.574
156.698
193.485
182.989
204.894
145.027
159.693
147.036
157.318
159.261
176.862
185.163
169.228
209.79
200.077
190.861
198.795
203.715
169.337
192.315
206.517
203.045
196.311
202.644
217.339
217.862
248.939
231.928
204.131
217.991
201.99
205.167
227.859
209.446
248.624
233.655
223.638
165.554
162.883
173.108
167.661
163.438
162.873
161.851
204.238
201.795
172.216
191.114
183.792
197.326
191.53
157.861
161.508
158.501
163.194
163.389
165.901
168.44
164.513
164.451
168.085
165.443
162.711
159.868
165.924
161.752
159.502
163.274
162.751
161.336
171.838
167.752
173.583
164.004
172.692
179.724
180.588
170.535
170.689
185.195
180.646
182.023
173.413
179.066
170.518
154.081
164.947
163.751
154.701
165.328
170.081
172.084
170.305
166.595
165.228
170.554
160.524
164.607
172.735
175.053
165.65
170.432
167.603
152.172
139.096
145.865
150.796
152.885
127.76
152.33
136.387
125.608
129.361
161.106
157.073
162.422
166.565
154.972
140.659
148.228
149.015
208.039
197.234
202.14
199.831
175.729
163.865
158.256
160.044
167.904
177.704
157.417
162.276
160.271
159.128
158.873
168.459
159.933
164.361
161.572
167.763
164.936
161.383
168.924
204.977
216.809
207.057
198.053
181.062
148.123
171.085
161.046
170.674
182.074
170.602
198.171
174.407
183.693
187.491
187.814
187.861
189.397
165.808
166.942
170.519
175.165
184.617
191.099
194.586
193.597
175.89
168.438
188.966
180.291
194.085
