# vtk DataFile Version 4.2
vtk output
ASCII
DATASET POLYDATA
POINTS 642 double
-150.329 238.436 92.5962
129.03 221.928 76.6275
-180.476 -289.324 130.389
161.571 -288.694 133.025
-5.63761 -290.834 403.974
-8.37905 57.1244 350.779
1.74254 -145.511 -83.4986
-3.52864 171.976 -226.812
264.937 38.5669 -80.9236
202.677 -56.8151 260.606
-284.271 43.5253 -82.8781
-229.112 -62.6503 261.637
-180.902 112.704 150.115
-132.572 10.13 330.407
-94.7486 204.668 181.325
74.6518 205.595 179.589
1.46449 266.1 67.0715
94.8141 223.424 -105.254
-97.0267 232.47 -109.178
-174.014 109.905 -142.178
-319.007 154.411 -78.4514
-279.925 -44.8455 43.0813
125.678 6.93261 321.065
173.153 88.5523 151.419
-128.882 -220.318 360.225
-4.75856 -41.5369 406.37
-238.564 -189.533 9.47489
-233.757 -215.475 199.752
-3.73227 83.4499 -216.257
-171.488 -115.543 -130.699
291.426 149.169 -80.9111
185.835 96.1339 -173.425
212.719 -209.549 193.421
110.289 -213.031 352.54
80.936 -350.791 318.881
-90.608 -355.639 322.896
-0.691903 -305.28 239.52
-193.001 -239.257 -26.1551
178.084 -239.979 -25.3172
157.841 -118.75 -123.585
223.307 -183.761 2.97461
266.867 -38.6241 32.4639
-165.302 209.524 103.481
-133.412 204.607 164.566
-125.242 250.116 142.684
-190.725 -17.1959 304.416
-180.475 42.5643 265.725
-218.289 2.71895 234.213
-51.9466 153.908 268.277
-93.8339 126.755 269.245
-46.2133 38.9625 365.792
-84.8141 258.456 138.093
-84.9243 268.106 86.1957
36.3384 154.106 267.381
-1.94035 195.512 208.701
67.2445 269.576 80.8403
68.8159 258.581 139.228
103.343 244.624 140.873
-58.3387 265.66 -10.2118
-164.464 213.627 -29.2819
151.888 200.252 -24.0628
48.1815 266.365 -3.5091
-55.0729 216.156 -182.25
-5.09433 251.336 -118.617
43.4498 213.943 -181.308
-270.634 193.104 -76.685
-278.233 182.158 -74.0139
-83.916 147.27 -225.169
-162.483 181.595 -145.06
-328.801 133.827 -81.8736
-296.746 145.574 -122.022
-275.317 101.555 -126.387
-290.948 141.685 -45.8773
-288.681 33.4825 -37.2755
-321.51 132.251 -84.3931
-243.599 60.3246 58.264
-253.288 -81.2418 180.857
106.392 193.181 161.823
141.191 194.422 79.3905
31.0519 38.9396 356.547
83.0844 120.586 265.365
196.298 6.62419 233.706
168.38 38.2486 259.881
174.976 -22.4685 298.716
-46.6129 -4.05686 397.665
-9.5592 9.35468 396.098
-196.899 -109.254 307.106
-151.93 -53.7183 347.873
-2.97738 -193.591 402.863
-65.5783 -139.803 400.157
-81.912 -255.075 401.064
-267.063 -139.399 144.582
-242.351 -135.209 231.032
-271.982 -90.8378 -39.7121
-272.809 -105.42 37.4695
-216.59 -266.457 163.517
-259.699 -210.3 110.465
-220.775 -243.162 75.2292
-186.178 14.0578 -138.734
-232.099 -50.2471 -99.4966
-5.72662 144.485 -242.879
-66.9805 140.796 -221.73
-197.297 -136.048 -115.544
-116.303 -30.8413 -177.023
15.1041 26.116 -123.276
152.324 172.978 -133.708
77.9264 145.821 -224.045
253.833 175.973 -69.3031
246.01 187.947 -81.4446
258.302 98.4584 -120.371
274.928 140.655 -117.097
304.002 116.936 -82.0766
196.215 -257.186 164.625
147.078 -286.826 269.205
111.459 -323.734 252.796
180.082 -98.6794 303.237
171.527 -209.863 293.043
221.809 -136.279 221.527
35.2782 -329.666 383.18
101.459 -282.103 364.512
65.2141 -256.229 398.277
48.0147 -354.066 304.522
114.351 -309.177 174.395
-46.9092 -334.847 389.676
-6.47979 -378.842 342.815
-120.203 -304.911 181.106
-62.6735 -357.51 315.318
-123.145 -328.795 258.723
169.484 -274.051 72.7588
165.871 -266.365 40.5916
-178.918 -271.35 45.4243
-168.228 -249.702 77.9682
157.22 -183.67 -55.3937
5.23907 -206.66 -76.6368
-155.579 -179.511 -51.8739
181.468 -231.934 -22.2008
205.54 -236.154 67.9379
163.088 -136.915 -117.23
172.12 -186.488 -76.8518
259.62 -87.719 -37.1497
204.46 -153.595 -68.1088
229.231 -49.8188 -93.044
235.444 -208.38 107.681
274.641 23.8983 -26.2573
263.356 -94.6577 17.5337
236.614 -140.063 152.627
229.249 -80.3312 174.048
52.2311 -139.137 398.152
141.073 -55.8803 342.841
31.3144 -5.68583 388.683
-165.976 -292.372 277.851
-120.079 -284.478 370.796
-192.93 -213.328 304.892
-186.111 -185.229 -82.3747
-193.564 -238.804 -25.7821
-215.112 -155.341 -72.7724
182.291 23.877 -128.843
105.333 -26.0566 -176.998
60.5642 143.753 -225.782
223.372 41.0292 50.4602
300.027 106.237 -84.0491
262.912 138.835 -46.3107
-162.117 223.579 99.8761
-147.193 235.059 134.827
-135.094 251.714 125.489
-142.591 173.842 159.221
-150.072 218.071 141.248
-165.937 187.051 105.855
-115.237 242.022 157.185
-135.365 231.418 153.062
-119.888 211.389 173.929
-210.6 -39.1303 283.308
-207.216 -7.05679 270.818
-226.243 -28.9654 249.724
-166.683 25.7417 298.593
-186.961 12.3742 288.627
-169.533 -2.63778 316.78
-208.447 38.3315 206.741
-200.246 24.7086 253.789
-181.975 68.6966 221.873
-23.7584 102.902 294.945
-40.835 86.2056 302.915
-29.4536 47.1321 362.658
-87.4489 172.454 237.759
-71.8974 147.805 270.222
-70.2824 176.39 243.264
-81.1147 25.0593 351.847
-76.1974 73.0216 302.623
-116.529 51.7439 304.62
-147.877 120.316 209.814
-134.021 78.5285 263.789
-113.268 163.595 220.875
-114.284 263.299 125.309
-119.108 262.239 97.0027
-97.7434 246.282 155.041
-105.639 256.974 141.768
-67.2723 271.99 72.0057
-91.453 266.02 118.764
-55.7968 263.102 110.045
11.8577 104.793 294.759
-4.52156 152.886 268.867
50.2759 198.754 196.581
22.9391 173.718 248.439
53.6898 174.71 238.884
-34.0952 172.821 249.353
-63.4751 197.859 202.831
94.7122 256.955 88.3908
92.3589 259.865 123.575
113.078 244.043 123.433
50.0203 263.76 110.701
72.9279 265.785 117.065
57.2259 273.151 72.1279
92.6742 239.209 155.522
83.8968 255.518 142.727
78.1476 246.347 154.528
-47.069 235.597 158.354
42.699 236.346 156.231
1.47522 253.403 136.22
-100.659 268.283 43.6954
-147.288 224.391 27.8527
-44.0552 269.559 35.7422
-74.3743 278.041 41.1315
-127.25 230.829 -61.8328
-87.505 263.192 -9.50046
-73.0514 261.769 -64.1523
135.642 210.188 18.097
86.598 265.941 39.7022
62.5603 256.016 -59.6574
78.9792 260.071 -2.80317
128.807 213.703 -68.3002
62.8072 277.659 42.9667
37.6985 273.222 36.6039
-28.8005 198.675 -208.827
-4.09372 216.838 -186.796
19.9195 198.155 -208.913
-49.5163 246.982 -116.292
-29.6153 235.138 -153.271
-77.655 229.021 -151.387
65.7917 224.254 -148.154
19.1646 233.492 -152.672
37.8725 244.887 -116.298
-3.28186 265.636 -13.1215
18.6757 263.582 -70.9959
-30.5477 263.905 -71.7507
-240.612 198.808 -61.1359
-195.144 194.196 -27.1161
-198.261 184.664 -61.0445
-238.964 199.083 -61.1302
-303.117 173.066 -81.6003
-274.75 193.195 -78.0515
-295.738 179.119 -82.5261
-43.1103 158.894 -229.434
-69.9559 186.098 -209.317
-177.09 149.459 -153.687
-109.642 165.493 -201.279
-117.984 138.958 -213.764
-95.4117 204.072 -178.345
-132.528 206.722 -141.466
-314.183 104.298 -85.1362
-306.202 120.6 -105.032
-287.288 78.9469 -107.594
-322.059 156.179 -92.2953
-318.13 137.551 -100.384
-330.899 140.836 -83.583
-260.323 111.61 -131.891
-287.255 129.472 -123.878
-268.315 132.082 -130.795
-236.056 174.135 -114.594
-256.019 160.967 -126.469
-284.651 176.869 -102.893
-208.69 161.995 8.80307
-310.336 151.645 -68.0271
-292.423 158.497 -55.4605
-220.356 145.331 9.85641
-228.909 115.08 24.1239
-291.474 39.8062 -60.6066
-320.615 109.193 -75.2091
-302.665 63.0325 -49.9921
-318.414 101.266 -72.9778
-290.129 1.06736 2.66536
-330.107 137.064 -82.7257
-331.792 140.741 -83.7121
-235.83 -30.8394 215.699
-239.846 -68.1008 226.897
-228.817 62.2024 108.78
-229.279 10.9972 182.808
-263.515 -72.4826 118.845
-243.427 -25.824 150.958
-265.737 3.7442 34.6619
-305.876 135.243 -59.7215
-290.07 108.771 -40.4355
-278.294 110.145 -27.3985
121.531 229.275 131.408
135.953 208.59 74.8092
93.1838 206.345 171.22
111.173 227.471 148.158
153.81 158.305 93.9522
123.289 211.816 137.162
124.378 149.823 165.515
11.0428 48.923 357.94
26.5471 90.765 299.334
107.813 50.89 297.731
65.4794 74.1774 294.751
73.4428 24.1895 337.783
56.9676 144.455 266.373
71.7672 167.811 234.122
200.711 -23.6603 248.994
188.439 -6.98243 266.212
189.627 -36.9752 282.47
170.904 55.6265 223.806
184.634 23.9762 248.924
188.045 34.5605 209.903
155.436 -8.41987 310.341
172.36 10.024 280.761
153.24 22.5215 290.661
97.5289 152.06 222.209
122.989 72.5768 261.602
131.61 102.333 216.399
-29.8576 24.3263 385.576
-9.83728 30.3328 380.276
-79.6101 4.40171 367.118
-47.7526 14.9869 386.147
-9.63216 -9.84209 405.023
-31.0489 1.22465 400.422
-29.9104 -16.1765 405.96
-219.413 -77.7326 283.082
-196.904 -54.7453 306.348
-141.396 -123.004 347.915
-175.783 -77.3712 330.441
-162.358 -163.948 325.801
-173.551 -35.0335 327.954
-145.387 -20.2421 340.13
-2.80527 -254.092 404.108
-52.7548 -236.743 404.734
-48.0623 -273.259 404.128
-31.0463 -81.6111 394.072
-45.7758 -164.702 402.098
-1.96107 -109.335 405.985
-98.0673 -249.114 389.091
-72.5014 -224.987 397.117
-85.6688 -197.803 381.769
-92.1631 -28.9813 365.945
-94.0651 -91.5447 372.333
-55.0263 -47.1571 397.393
-252.772 -106.076 204.04
-237.779 -95.9313 246.63
-268.762 -102.024 111.303
-265.164 -110.791 164.599
-237.38 -175.593 219.069
-261.655 -133.46 187.188
-252.086 -172.621 160.437
-280.306 -40.1559 -59.1639
-283.523 -48.2626 -34.4143
-257.348 -148.123 26.9171
-278.022 -95.2789 -13.063
-248.44 -133.342 -18.976
-283.746 -61.1716 -2.94362
-281.403 -76.6758 44.4169
-200.221 -280.666 147.203
-224.896 -256.255 119.378
-202.675 -270.58 104.071
-252.885 -215.567 139.352
-242.298 -236.74 130.244
-226.177 -243.503 179.569
-233.957 -217.607 40.9859
-244.514 -229.142 95.5727
-251.654 -204.226 70.9909
-269.037 -140.942 94.1323
-265.697 -174.604 90.247
-267.312 -182.204 119.535
-254.635 39.3642 -112.673
-262.028 -5.60778 -89.7813
-197.079 87.5755 -135.815
-244.179 68.0174 -130.527
-195.692 -90.0343 -118.339
-215.592 -16.0028 -122.64
-171.727 -60.2583 -145.447
-4.40431 144.621 -242.67
-36.2805 144.558 -235.497
-28.8498 106.034 -217.437
-31.4 144.415 -235.379
-6.22102 128.135 -229.064
-77.899 147.334 -225.778
-118.539 138.136 -214.343
-126.522 -144.996 -79.5661
-144.948 -74.8976 -107.984
4.21575 -121.422 -74.6955
-154.17 -81.0579 -156.719
-161.971 -93.0714 -152.014
-176.459 -125.865 -122.473
13.3443 78.5389 -230.541
-100.921 -11.8617 -185.701
-46.2672 39.1413 -205.805
-114.142 84.6078 -170.728
[...]
POINT_DATA 642
SCALARS Mean_Curvature double 1
LOOKUP_TABLE default
0.0206773
0.0289722
0.0255835
0.0191235
0.00355291
0.00379623
0.144743
0.00822368
0.00347214
0.0110089
0.00446898
0.0128683
-0.00195526
0.00372916
-0.0239801
-0.00858821
-0.00412731
0.00374771
-0.000301301
-0.0360886
0.0541262
-0.0020435
0.00531979
0.00100713
0.00111033
0.0223636
0.0063711
0.00735608
-0.0293829
0.0138832
0.00133588
-0.0824085
0.00407379
1.85467e-05
0.0339586
0.0267509
-0.00531652
0.0721683
-0.0943932
-0.0334014
0.00961558
0.0244589
0.0167009
0.0122038
0.0295522
0.014142
0.011595
0.00507373
0.0101213
0.00891181
0.0115415
0.0182072
-0.000799823
0.0171138
-0.00122993
0.0059815
0.025267
0.0280223
0.000798894
-0.00845154
-0.0123309
0.00377829
0.0102602
0.00878546
0.0119215
-0.0160611
-0.00739673
0.0676181
0.00518701
-0.0780998
0.0408513
0.018387
0.0121557
-0.0291352
-0.0523818
-0.00652551
0.000684512
-0.00277477
-0.00299909
0.00545921
0.0105367
0.00932021
0.0126478
0.0130602
0.0196223
0.0140854
0.00618749
0.0115852
0.000744181
0.0240627
0.0234584
0.00852953
0.0065591
0.0171416
-0.000163137
0.0159535
0.0211584
-0.000517283
-0.00136135
0.00143702
0.214625
-0.00711072
-0.0461026
-0.0482787
-0.013094
0.00442054
-0.0838652
0.00672037
0.0467442
0.00595391
0.0263432
0.0604518
0.00992059
0.00594526
0.0119383
0.0104508
0.0125952
0.0098322
0.0098775
0.0169585
0.028446
-0.00315324
0.073138
0.0193491
0.065221
-0.046267
-0.0292692
0.0152058
-0.0232014
0.205439
-0.203698
-0.0158519
-0.0188756
0.0370874
-0.0148437
-0.00652478
0.00338246
0.00653008
-0.550068
0.0210412
0.013513
0.0174396
0.0214977
-0.0222444
0.0285119
0.00226644
0.00288159
0.0179781
0.016379
0.0138083
0.0108102
0.0180785
0.0219726
1.23116
-0.0358041
0.00818773
-0.00414058
-0.127573
0.004057
-0.00905627
-0.0817075
0.00740602
0.0179879
0.0320717
0.0239468
-0.00706897
0.0191305
-0.00607343
0.0270734
0.0299855
0.0281407
0.00608292
0.00719769
0.0108984
0.00987942
0.0118647
0.0122137
0.00297616
0.00921147
0.00423688
0.00197695
-0.0089137
0.0175143
0.0175336
0.0197925
0.0210516
0.00280078
-0.00421062
0.00467445
0.00110831
-0.00367824
0.00464201
0.0313833
0.0119512
0.0153433
0.026882
0.00965141
0.0221214
0.00167597
0.0072646
0.00697934
-9.59738e-05
0.0105699
0.0191032
0.00702467
0.0012732
0.00503712
0.029527
0.0212155
0.00209246
0.0329419
0.0163511
0.0293024
0.0377574
0.0264727
-0.00246469
-0.00372649
0.0113237
0.012137
-0.00119027
-0.00121031
0.0294815
0.0103783
0.00665854
0.0138702
-0.0010894
0.0151742
0.0083506
0.00648927
0.00404987
0.0327992
0.00537811
0.0141022
0.0081906
0.01736
0.00466689
0.00654603
0.0124208
0.00975312
0.00603424
0.00536901
-0.00137449
0.00907894
0.00679247
-0.065964
-0.0224366
-0.0276719
-0.0778227
0.092601
0.317182
0.0509676
0.00873291
0.0135493
0.0129412
0.00572118
0.0892536
0.0107099
0.0125124
0.0134017
0.00797508
0.0180373
0.0539283
0.0348204
0.182384
0.00849411
0.0141859
0.0111536
0.00873233
0.0241068
0.0245218
-0.00243603
0.0206173
0.0183006
0.000440734
-0.00683921
0.0155305
-0.17406
-0.0517698
-0.123907
0.0852156
-0.589934
-0.0227095
0.00541209
0.00208702
0.00970044
0.00589146
0.00109621
-0.00178915
-0.00535317
0.0238967
0.00481561
0.00364625
0.0318009
-0.00175274
0.0184811
0.0265359
-0.00169949
0.0103859
-0.0040048
0.0176457
-0.00615915
0.00748463
-0.00610059
0.00160179
0.0121041
0.0118322
0.00875915
0.00824728
0.0108752
0.00662501
0.0163263
0.00453307
0.00961241
0.0125549
0.00833611
0.00692526
-0.00128862
-0.000897473
0.0213469
0.01007
0.00968717
0.0176454
0.0218216
0.0261509
0.0195033
0.0122985
0.00588968
0.00318575
0.00834148
-0.00433604
0.0132078
0.00836686
0.000705888
0.00968563
0.00284254
-0.016496
0.00149284
0.0197793
0.00433289
0.0131308
-0.00785273
-0.00381565
-0.00388675
0.0179948
0.00550578
0.0085106
0.00316823
0.011538
0.00307816
0.016489
-0.00694744
0.021707
0.00904119
0.00116761
0.0176102
-0.00550832
0.001863
0.0159492
0.0115384
0.0111696
0.00942908
0.0124999
0.0131623
0.00421494
0.00951905
0.0139765
0.00713289
0.00307711
0.00928566
0.0175835
-0.000533243
0.00639983
0.00311236
0.0138385
0.0018645
0.00544058
0.00328605
-0.00600416
0.252967
-0.00430023
-0.0531408
-0.00179581
-0.0983934
-0.0579197
-0.01235
-0.013768
-0.00864397
0.00463746
-0.0672463
0.0457195
0.0272177
-0.0255588
-0.0129599
-0.0106464
-0.0010184
-0.000481516
0.00822666
0.00849019
0.00986144
0.0103018
0.0936205
-0.0002771
-0.0244831
-0.0104218
0.0834401
0.0339138
0.00912185
0.0746281
-0.00426425
-0.029602
0.0181222
0.0192406
-0.0122218
0.0215657
0.0301407
0.00112732
-0.181198
0.0281048
0.0604977
0.0239431
0.0328745
0.0199873
0.00434175
0.0101249
0.014016
0.000492879
0.016591
0.00774057
0.00774023
0.0135826
0.0113773
0.00573712
0.00839283
-0.00218031
0.0106742
-0.00133428
-0.00338407
0.00684209
0.00525762
0.00501831
0.016628
0.0252099
0.00993411
0.011231
0.0186406
0.00723657
0.00316893
0.0271243
0.00337144
0.00809157
0.0117226
0.00404103
0.0205672
0.00475927
0.0502857
0.0348293
-0.0304275
-0.00310413
0.00161552
0.0196984
0.0205964
0.0400809
0.0218131
0.00671108
0.0224856
0.0297577
-0.0155694
0.013648
0.0234808
-0.00229444
0.00595768
-0.000964605
0.0254653
0.0399209
0.088323
0.0436967
0.0263402
-0.0153481
0.122225
0.017808
-0.0108175
0.0786624
0.359057
0.246611
-0.0446492
-0.0122113
-0.0122861
-0.0243583
-0.120326
-0.0886002
0.059341
-0.00645145
0.0111958
-0.0223074
0.0272944
-0.00834767
-0.0349928
-0.0755159
-0.0307658
-0.0232736
-0.0207721
-0.00427542
-0.000664052
-0.0039402
0.00436637
0.00014295
-0.342827
0.123115
0.00675291
-0.00186149
0.0111087
-0.0119851
-0.0170314
0.100963
0.0709464
0.312318
-0.161774
0.785016
0.0204107
0.00974603
0.0117507
0.0096809
0.00287915
0.00580465
-0.00498117
-0.00426876
0.0116952
0.146038
0.00592104
0.00267251
0.0109956
0.004873
0.0190894
0.0190494
0.0131925
-0.000300951
0.00771121
0.0122662
0.00344202
-0.115449
0.0173538
-0.0143449
0.00307754
0.00395957
-0.00106638
0.0233804
0.00110729
0.0101828
-0.0017271
0.0173512
-0.00794616
0.0081869
0.014516
-0.00514513
-0.000276765
0.00406988
-0.00826431
0.0135049
0.00700988
0.0148008
0.00686201
0.0063753
0.0225461
0.021518
0.0292006
0.00933219
-0.000543054
0.00122406
0.00576875
-0.00125673
0.0057222
0.0111192
0.0112445
0.00953739
0.00397535
0.0212694
0.0102953
0.0280171
0.0135616
0.0105498
0.00788399
0.0019148
0.00649047
-0.00352752
0.0158133
0.00891738
0.0059959
0.00728629
-0.0223207
-0.141202
0.0506182
-0.00953367
0.20003
0.010731
0.00723276
-0.00455981
0.149505
0.981973
0.00788852
0.0174552
7.54772e-05
0.00448387
0.00940502
0.213311
0.0017346
0.0212187
0.00266533
0.00277033
-0.00557247
0.00779106
-0.032732
-0.0172945
0.0354195
0.0176826
-0.152212
-0.00387602
0.287041
-0.0141889
-0.872012
-0.0525471
-0.0116555
0.00177214
-0.0116449
-0.0143372
0.00181975
0.0015028
-0.000810201
0.00260214
0.00660745
0.204921
0.103029
-0.158437
-0.0515412
-0.08605
0.00323462
-0.00696412
0.00294919
0.0212593
0.0122171
0.00184924
0.00154166
0.00827366
SCALARS CoVolArea double 1
LOOKUP_TABLE default
1825.6
1713.5
1097.34
1403.93
1121.8
1277.11
1223.04
1192.65
1663.77
1111.93
1598.22
950.825
6623.33
1926.9
1307.31
1098.1
2748.19
2958.34
3356.07
2194.62
233.713
2456.71
1962.75
5893.97
2646.09
1213.47
2093.85
2501.66
1463.78
948.435
183.579
1706.51
2205.44
2789.29
1257.75
1408.64
6082.87
834.269
441.34
1298.37
2038.2
1689.27
1430.5
1576.68
440.802
1045.51
2086.53
1515.23
1503.36
2535.32
1564.58
1314.84
977.08
1349.42
3482.96
832.01
967.191
419.61
2173.39
3339.19
3078.07
2098.93
1624.71
2001.01
1575.94
1159.55
1877.89
883.483
2557.12
303.306
935.905
1127.06
1466.25
1896.25
807.837
4832.4
2282.73
1859.65
2103.46
1893.19
2365.28
1208.26
1695.58
889.772
1060.15
515.862
2308.85
2438.01
3135.81
2690.41
825.602
1710.32
1913.27
1493.02
2183.41
1620.73
1002
1696.64
4607.32
2499.8
213.62
2611.55
2286.04
1006.59
16560.8
3611.45
874.548
1269.47
616.713
1022.47
958.711
229.149
1453.97
2016.04
1562.06
2072.49
1806.53
1550.81
1626.17
1432.85
682.52
951.582
499.64
1523.78
747.393
1104.7
1182.81
1519.3
6796.79
322.383
351.874
7737.5
3439.57
8087.98
3671.27
855.375
1542.42
1114.61
104.14
1228.06
1484.68
2102.14
963.206
1528.56
1493.36
2371.77
2579
2875.42
1659.77
1481.92
1994.06
1595.32
1739.52
29.5257
857.922
1670.33
5258.26
543.919
3167.42
5402.59
1133.38
1355.29
2108.58
609.332
753.266
3059.6
1018.14
4130.1
622.174
545.283
1187.63
1117.4
1148.87
1241.17
1808.83
1005.1
1067.77
3380.5
1418.18
3107.61
2024.56
1960.19
1121.93
1460.2
1536.77
1189.8
2036.92
2698.61
2868.68
3264.26
3389.23
2840.28
631.493
1823.66
1266.75
413.032
1474.8
746.178
2510.52
1858.87
1843.21
1961.84
1770.44
1138.64
1910.81
2476.39
2013.31
695.41
945.483
2218.01
575.228
1110
554.755
374.183
892.772
3149.21
2664.47
2372.27
2779.17
3218.56
2364.2
1263.52
3525.5
2849.9
2560.75
2945.31
2412.72
3060.43
3018.16
3704.59
1010.19
2111.08
1572.29
1652.3
1505.98
2115.11
1817.38
1935.08
2057.2
1771.61
2311.01
3040.59
2626.36
2562.36
1330.53
3435.43
4019.32
1298.49
362.437
167.53
373.293
1253.17
1663.52
3099.32
2264.87
1224.88
2070.08
3530.24
1114.92
865.998
1638.86
699.548
474.62
141.726
1341.92
571.143
1692.88
2844.21
1855.43
1212.08
3302.44
433.522
1497.95
2553.97
5672.26
1672.99
522.097
2361.45
711.726
1765.9
65.2907
198.746
2144.27
1460.81
5168.32
3310.94
3386.91
5091.54
5974.17
578.468
3012.75
2261.43
747.478
1579.05
1249.43
578.761
5428.04
1852.18
3977.66
1179.67
2003.94
2608.57
2807.72
2351.05
1619.33
1516.94
1198.96
909.564
923.441
2721.19
960.008
2368.16
1004.56
911.146
1621.12
2755.88
2837.09
3049.11
573.565
680.899
1556.75
769.041
494.102
439.756
951.829
1432.91
1377.54
4007.54
2097.53
2787.25
1139.87
1635.94
1993.64
1934.48
1332.12
2185.25
2577.49
2438.23
1031.74
1345.21
3377.25
2509.24
4108.82
2416.09
1369.73
1463.45
2194.07
1476.23
2325.12
1638.47
2159.58
1896.54
1688.93
2675.92
1751.89
1992.58
2180.97
2197.49
1520.73
1240.96
1377.39
1581.69
1145.48
1828.64
1552.43
1199.54
1816.46
2042.99
1874.8
1410.24
2130.63
2218.05
3797.51
2386
2242.51
2882.62
2423.97
588.026
247.265
1985.29
611.253
920.229
176.541
2022.52
3675.75
10439.1
12078.8
791.712
1657.12
350.451
5281.59
6156.55
1490.88
5834.26
3653.93
3627.85
1643.46
1202.93
2750.17
2427.61
1340.99
2747.83
3819.56
2455.75
1192.52
275.71
184.873
371.072
1186.47
2208.64
1337.49
663.661
1023.35
1566.81
611.469
831.226
122.376
532.527
595.551
1996.54
1005.23
2336.03
1571.51
1696.21
1755.88
2289.38
1692.08
1569.62
914.658
1453.72
1458.07
1326.57
2031.23
1587.25
2050.9
2374.78
2885.52
1850.17
1935.94
2211.66
1254.24
1206.11
1175.65
1658.05
1456.67
1680.41
1196.33
810.047
1236.67
2379.02
1858.43
2132.86
1286.1
1125.09
654.937
916.888
2608.37
919.127
3006.46
1197.95
1348.12
988.977
1335.3
1706.73
1406.53
1067.6
1324.76
1320.26
1743.22
3428
1382.83
3003.56
976.001
770.78
584.304
454.77
421.867
1761.86
289.834
1208.32
11427.2
1313.44
149.845
522.708
2058.23
1024.47
655.615
2494.86
1033.02
314.612
2407.99
12013.2
3801.45
8293.44
3790.69
2945.16
5004.24
1032.19
1438.16
5090.05
3024.94
15337.7
9101.02
9254.43
1405.91
1704.15
119.645
505.474
1372.45
1329.24
1349.77
2941.47
1064.8
432.184
260.162
100.918
452.837
60.2949
1743.03
1629.86
1727.58
1543.28
1556.62
1721.16
2431.7
1815.99
1455.97
462.625
877.037
1330.31
1293.57
1809.01
1081.48
1007.01
1358.18
1816.61
1555.3
1952.99
1398.44
1114.07
1198.5
2325.54
1289.38
1741.9
1724.16
1153.66
2740.68
1581.57
2774.4
1795.83
2985.91
1777.17
1624.39
3323.74
1379.06
2086.85
1768.97
994.95
1442.52
838.283
1647.77
3239.57
670.62
1046.46
510.769
1072.94
1861.57
3614.38
2474.52
2966.42
1975.68
1642.22
1597.36
1903.6
2357.18
1269.26
1178.11
942.664
1587.28
1876.74
2131.21
2327.62
1989.21
2102.08
1745.47
2179
1904.19
2386.82
1410.03
223.966
700.465
473.148
252.066
1361.34
1628.89
1555.5
493.097
41.1074
2033.83
1365.28
2014.27
1763.14
1823.54
342.567
1453.71
805.829
1861.96
2942.05
3017.29
2326.14
3360.7
8268.94
931.856
4381.86
758.502
793.516
227.895
1944.79
105.597
603.849
1959.09
4264.04
4022.19
7029.48
2334.72
4527.38
4819.95
3500.03
4803.85
446.181
335.783
65.9113
465.37
2001.31
1978.24
5020.47
2639.54
1049.75
506.612
3291.96
1028.15
2815.15
SCALARS SignedDistance double 1
LOOKUP_TABLE default
34.3944
42.4345
42.657
42.2063
29.6749
38.3435
175.265
26.033
30.2261
33.8919
30.3144
31.4911
37.4168
35.7838
44.2181
45.1072
33.1352
31.5399
30.5158
41.0288
31.1989
35.3921
34.1641
37.1476
31.9227
32.4967
35.8117
32.2341
73.1039
72.5212
33.5442
80.6204
33.9704
34.1808
28.9122
27.2668
94.7743
55.7573
54.0513
59.1125
38.0786
33.7478
45.3654
41.5687
27.6322
30.8083
32.7075
35.0632
33.1309
35.4004
32.5667
32.1526
33.8494
32.4313
40.5601
34.3662
32.3915
29.6053
32.6803
40.5188
43.2542
33.3582
26.1027
29.2543
25.0496
42.9971
34.4854
34.8872
36.959
42.164
28.278
30.8025
39.9072
39.1619
35.6123
42.4098
35.4454
41.409
41.8424
34.3167
34.0444
36.137
32.466
32.0667
29.4078
31.3631
31.7454
30.6741
31.8382
30.9624
30.7899
33.9184
33.3342
27.3886
40.9145
26.3482
29.4069
30.631
35.4147
34.1704
37.3705
35.3936
53.1443
94.9342
133.254
42.5076
36.5191
32.7659
36.1458
29.7193
25.4333
45.6921
29.9299
29.8424
32.7273
32.0481
32.925
35.1191
24.3659
31.232
32.6346
38.0143
64.228
20.9146
40.9059
65.4764
38.0897
32.5724
51.2743
61.2076
65.716
50.436
44.9397
189.479
58.8035
43.8267
30.2631
55.6469
48.7825
28.3651
28.4404
33.5031
34.0808
50.2412
33.021
36.1453
36.3195
31.7826
31.4555
32.6184
27.5208
28.148
31.4964
56.617
53.4777
28.362
37.3959
89.6492
37.6468
52.7323
43.8272
39.966
42.0682
29.6959
27.8523
41.325
36.2471
44.4215
32.3671
32.5874
44.0675
33.3842
33.6338
32.7993
32.1058
31.9414
31.2821
35.4378
33.2205
35.4146
49.8969
47.0536
35.1036
31.6883
31.6965
31.6776
34.2007
40.9893
37.4171
36.29
40.8161
34.7068
30.1861
29.6222
33.1044
31.0129
34.8204
33.0217
33.6947
50.1664
33.0514
43.031
32.5501
32.8556
32.389
42.3995
30.787
28.6724
31.3221
32.4821
32.7955
34.5816
31.1254
30.2855
32.6907
35.1756
36.2091
32.4048
29.1133
35.5957
35.465
32.6145
31.0979
30.0362
28.6432
40.7254
30.7821
28.9904
30.5556
38.0215
31.3592
36.7504
23.6878
26.6311
23.4739
28.6298
27.7723
28.3998
27.2437
28.6701
27.8294
32.6656
30.5115
30.8521
60.6604
42.0479
38.8107
60.806
28.8308
42.5352
31.2436
29.8586
23.7222
43.4464
25.6299
44.2867
24.9886
28.4375
31.6983
27.2491
28.1668
26.9675
29.3756
43.0407
35.8809
29.1012
34.7702
48.6468
39.0574
28.0568
39.5689
31.8484
34.343
39.7809
42.5315
34.6995
40.0909
42.1823
40.7316
51.316
43.1321
42.8865
34.9995
35.8715
33.9803
35.2284
37.668
37.9919
40.5316
37.6729
39.4963
39.2498
34.3207
43.2102
43.0017
35.0937
38.9768
39.3771
39.3503
35.0798
47.4837
36.2669
42.529
36.3242
32.6187
33.0715
33.9546
34.6507
34.9247
36.4131
33.1548
36.9958
32.6629
32.5975
33.338
35.1388
40.2217
38.587
32.4655
32.9715
35.3546
30.7834
30.7224
30.963
31.6911
31.7028
32.6305
36.6014
31.2449
34.0327
30.7754
33.3902
29.8146
30.4442
29.8321
38.8401
31.6659
38.1423
30.8204
32.4086
33.828
37.62
39.4702
35.161
34.7447
34.7721
34.9491
35.2881
32.2507
32.6594
37.916
29.9401
33.3891
37.651
31.5031
39.9523
33.6367
37.7976
30.6942
29.5064
32.9932
29.7571
30.4252
31.3928
28.5823
28.5716
30.5466
35.2216
33.7347
41.2091
32.7519
30.8351
41.9347
39.6662
40.0755
36.1243
51.7522
36.89
36.701
53.2009
34.3181
38.2272
35.4023
44.2759
84.5927
55.4245
168.97
80.4694
80.7577
68.2416
84.1664
110.74
117.706
69.0914
112.286
71.6864
25.9207
30.5308
36.7357
25.3998
63.6605
31.3888
54.4604
38.02
49.2046
31.5187
32.711
33.1344
48.6725
43.8017
29.0178
28.5727
40.2131
35.427
27.4432
38.5813
43.2503
31.0759
33.955
44.0322
24.2377
34.1705
29.6584
29.5431
40.8858
32.679
28.8505
30.8921
31.1752
27.8939
30.1694
34
33.8942
36.8045
31.3221
35.2908
37.8405
31.6665
33.0086
32.4184
28.1246
26.3572
30.0458
28.7735
22.915
25.6438
32.7964
30.728
34.5088
31.5533
29.9869
30.2719
49.9952
61.4223
38.2358
35.9168
47.982
44.0381
50.1527
29.2002
22.04
41.2837
21.9015
23.9655
22.2445
36.4862
52.3492
48.4632
43.6424
57.4446
45.5384
54.9092
31.1603
41.3161
39.6304
38.5353
40.0022
37.0473
66.2701
60.1125
55.9013
70.58
53.9259
62.4175
49.43
60.436
70.929
43.8609
68.1354
56.3374
74.0192
80.5773
91.7621
176.22
121.591
45.4697
86.6679
50.7206
40.2095
104.385
61.1187
174.323
113.04
92.2374
46.7392
32.8462
53.6734
54.2961
32.2987
33.1264
28.3858
56.5043
42.0167
50.0487
49.6571
59.0982
49.0594
50.6542
31.2631
30.9785
31.5105
32.8992
38.6366
40.2877
31.9668
40.424
31.3253
51.2719
42.1155
31.2716
30.5401
34.5467
29.4131
29.5752
32.6387
38.5319
34.1569
34.3827
34.4249
45.1418
31.4919
41.2281
36.386
35.3877
41.7404
35.6663
38.3239
35.8087
38.277
36.0567
40.1441
36.7615
32.8436
33.0677
33.8401
33.1116
42.3611
32.1971
33.5034
31.8655
32.5263
35.0179
31.4199
30.4494
30.1539
32.796
35.7157
41.4161
36.1827
40.5234
29.3191
27.1251
28.7494
29.7875
30.6493
27.8899
32.2653
31.9367
22.5725
24.5733
29.9819
32.5584
32.8559
35.5748
31.3035
27.4269
30.1808
28.4112
50.6295
54.7501
56.8907
56.1243
57.9756
54.7758
27.6683
35.1611
57.4116
54.952
31.8902
46.6951
30.9723
36.7568
30.0671
55.4813
33.9497
55.7816
30.6729
40.3267
38.7129
34.1386
66.9827
43.6237
117.153
98.8664
71.2548
71.4282
38.5073
63.1332
34.4126
37.2671
53.6572
70.9495
117.566
58.8347
38.4855
39.699
38.1883
36.7168
37.5392
47.6585
43.6977
45.5033
43.8889
49.4809
40.8284
43.3921
40.2122
35.442
33.6052
38.2465
37.9605
38.429
