# vtk DataFile Version 4.2
vtk output
ASCII
DATASET POLYDATA
POINTS 642 double
-207.489 310.363 91.088
198.539 299.372 82.0329
-218.088 -369.83 117.303
206.563 -363.842 120.743
-3.67907 -304.713 487.872
-4.82262 130.234 425.041
0.853359 -227.303 -171.078
-2.06027 210.666 -291.99
345.177 15.2791 -121.048
296.784 -47.9598 301.259
-360.623 17.0309 -124.765
-315.811 -49.9482 304.496
-271.803 159.785 187.042
-180.952 58.1723 405.371
-120.636 282.378 255.169
109.573 279.583 253.258
-0.319482 361.363 80.0861
128.462 301.801 -134.158
-130.652 308.028 -137.184
-226.943 115.945 -239.453
-386.172 201.384 -63.9855
-377.949 -33.4692 65.4506
175.316 54.5614 397.752
263.115 143.024 186.058
-184.434 -212.492 436.979
-2.22472 -41.2482 499.646
-315.995 -231.084 -19.6161
-313.678 -248.291 226.841
-4.8134 37.6751 -303.983
-201.704 -144.63 -204.632
366.636 194.055 -61.0442
221.387 116.117 -240.49
298.381 -243.617 222.02
171.511 -209.859 429.88
120.546 -409.131 341.44
-126.154 -412.859 345.773
-2.59305 -412.416 182.669
-155.026 -318.868 -77.4547
145.735 -319.264 -77.7638
196.989 -145.071 -197.173
305.009 -225.468 -21.805
366.535 -30.7853 60.1642
-255.353 252.832 134.288
-206.031 249.175 226.004
-166.783 318.416 182.619
-260.126 9.99743 365.193
-247.444 98.7945 317.248
-307.841 41.7316 267.512
-62.5363 219.154 344.755
-142.956 179.818 341.402
-81.9269 100.969 435.778
-83.1718 344.34 180.49
-107.5 358.664 91.4319
54.0604 218.162 342.437
-0.735487 281.79 269.967
99.3266 357.024 87.6874
73.0514 343.704 181.17
153.927 311.994 180.438
-67.4162 358.027 -24.194
-198.034 305.022 -34.8999
191.043 299.751 -30.4802
62.3004 356.737 -20.9202
-69.311 275.676 -228.919
-2.97519 329.633 -150.566
62.5469 273.45 -227.323
-293.21 268.198 -99.3305
-321.982 252.416 -34.3846
-109.418 169.167 -292.855
-195.456 229.235 -204.451
-402.555 116.53 -105.45
-337.006 168.507 -173.782
-321.951 84.6399 -194.503
-362.762 183.471 17.5905
-385.826 13.7491 -42.1708
-407.076 118.472 -34.5388
-344.454 78.6011 98.0962
-351.904 -61.2739 203.764
188.27 241.27 223.955
240.878 244.734 118.152
72.615 99.4787 429.369
135.016 175.167 337.161
291.699 42.4022 264.497
237.531 94.6598 311.822
248.305 6.52712 359.906
-85.0995 20.4467 478.71
-4.92719 52.8118 480.606
-264.685 -116.938 371.989
-200.557 -45.1428 428.057
-1.81021 -194.51 493.402
-97.3773 -137.456 484.096
-110.8 -257.625 484.333
-362.884 -150.499 159.799
-328.308 -149.668 270.16
-346.407 -123.391 -76.4175
-366.677 -132.18 29.0623
-278.661 -324.074 173.365
-338.482 -251.712 105.11
-280.14 -308.876 50.6457
-225.579 3.13133 -229.263
-289.911 -75.1332 -170.014
-2.64992 111.377 -331.595
-96.3584 94.2402 -305.964
-148.743 -180.655 -198.929
-122.967 -56.4182 -254.524
4.77779 -52.5301 -224.085
187.551 220.555 -198.661
103.81 166.525 -289.724
304.87 247.798 -28.8467
278.359 264.527 -97.2131
310.822 78.0573 -189.703
321.812 165.026 -166.865
382.281 108.172 -100.053
265.306 -316.698 173.391
215.554 -336.67 295.682
157.48 -398.447 250.606
253.649 -108.185 365.533
249.927 -228.761 343.383
312.555 -146.859 262.961
59.8399 -373.259 434.408
160.614 -312.483 414.813
102.431 -256.288 480.214
56.2258 -447.162 267.984
109.241 -405.339 143.395
-66.5211 -376.257 438.171
-3.04224 -445.474 362.072
-116.287 -406.353 146.856
-61.8801 -449.795 268.657
-166.453 -404.737 251.734
119.733 -358.225 29.5318
173.213 -352.394 8.07976
-180.046 -358.795 10.7112
-124.863 -356.502 30.4902
122.353 -264.115 -133.811
0.940958 -267.358 -75.0849
-126.37 -262.629 -133.396
230.393 -290.509 -58.9952
268.695 -301.786 46.9685
133.313 -181.868 -199.945
170.511 -249.049 -153.848
336.65 -120.859 -73.4114
267.059 -191.71 -123.478
283.657 -74.6149 -164.476
321.771 -246.282 103.876
371.103 7.16466 -36.2243
357.007 -125.896 18.2392
341.386 -149.406 162.653
332.498 -61.9227 197.742
88.1281 -136.972 481.856
193.898 -45.8124 422.773
75.7632 18.9464 471.923
-229.345 -341.945 300.456
-171.274 -315.894 419.508
-264.954 -230.793 351.637
-176.103 -251.367 -158.047
-236.877 -294.059 -60.358
-274.988 -193.655 -127.045
222.406 7.01252 -218.945
111.591 -62.8519 -253.619
89.3331 98.8506 -303.54
328.266 68.3517 95.4432
383.39 109.664 -34.3496
341.472 180.231 17.224
-234.975 284.457 112.461
-210.841 292.401 166.242
-185.628 321.391 142.94
-237.299 214.203 209.55
-229.021 257.454 188.142
-265.754 220.395 151.337
-145.516 307.288 217.702
-189.833 286.563 206.275
-165.641 271.291 242.155
-290.416 -19.2195 337.018
-288.546 26.6477 318.509
-314.873 -3.17059 287.708
-221.728 78.3687 362.778
-256.103 55.2685 344.602
-225.846 35.1349 386.451
-295.881 87.6129 238.606
-279.945 72.0373 295.346
-262.435 124.256 262.273
-32.1372 173.986 381.563
-70.1956 157.604 388.563
-44.4532 117.087 435.204
-128.813 235.431 301.464
-102.326 204.86 344.823
-90.2715 249.601 305.523
-127.689 80.6072 424.162
-115.007 136.804 385.05
-163.304 111.502 378.261
-220.858 174.764 266.771
-195.95 139.241 329.828
-173.888 216.073 283.897
-143.754 343.749 143.25
-157.543 341.009 95.924
-106.271 321.228 216.544
-124.011 336.668 184.224
-67.9384 368.493 83.7732
-98.2235 356.412 139.014
-49.8551 355.742 132.606
24.0701 174.479 380.939
-3.30901 218.972 346.119
62.2597 283.411 263.752
30.4375 251.223 312.037
80.9012 247.846 302.172
-36.8553 250.623 313.063
-71.1132 282.972 267.02
143.739 335.667 90.4219
131.854 338.617 140.425
172.546 313.5 140.446
44.6605 357.468 133.177
87.2636 354.686 136.736
62.5813 367.535 84.0921
133.334 302.429 215.369
112.824 332.432 183.255
94.1394 319.078 215.767
-44.3379 317.714 219.517
40.5812 319.557 220.679
0.38161 340.497 179.631
-139.105 347.385 36.7674
-202.411 306.833 23.8107
-41.2689 368.669 31.1256
-87.9618 365.692 35.6259
-165.14 309.774 -84.7495
-117.358 344.642 -25.022
-96.5505 340.632 -83.9957
196.964 300.442 18.5609
131.955 344.385 34.6427
90.5108 335.773 -81.3414
114.278 341.458 -20.7126
164.534 301.038 -85.2181
83.2847 363.77 37.5526
37.1998 370.153 32.015
-35.7229 246.881 -264.718
-2.30531 278.618 -233.746
30.648 246.124 -264.162
-64.8324 323.793 -147.041
-35.7286 306.021 -191.985
-100.156 296.57 -186.683
92.7772 292.719 -184.054
29.9834 305.093 -191.649
58.0359 321.034 -146.499
-3.19108 359.975 -25.7324
28.8165 347.373 -90.6771
-35.9769 348.993 -91.0317
-274.58 281.329 -43.8478
-260.446 263.932 9.02319
-221.384 272.593 -109.791
-262.289 289.529 -70.8611
-355.364 232.833 -46.5516
-312.607 268.568 -61.1046
-344.55 243.421 -82.3617
-55.8859 192.912 -296.513
-90.2624 228.553 -266.659
-215.168 171.913 -227.651
-144.582 203.211 -258.487
-160.695 141.982 -281.604
-124.496 256.581 -226.19
-166.097 271.689 -177.079
-384.67 79.5902 -119.292
-366.694 102.495 -156.422
-347.781 54.5118 -163.031
-368.43 188.857 -119.096
-378.176 140.837 -145.434
-406.214 154.225 -85.7985
-290.958 104.479 -217.038
-336.545 125.107 -191.257
-300.88 144.602 -210.808
-257.723 249.069 -158.316
-283.327 203.509 -188.771
-317.67 226.252 -141.916
-285.82 236.62 41.365
-377.411 195.982 -24.6184
-349.074 218.629 -7.18231
-304.829 204.773 61.6836
-315.182 170.487 78.6781
-378.881 16.0979 -82.3141
-404.633 84.3306 -74.0831
-389.045 72.0592 -4.32989
-403.151 87.0735 -41.4261
-383.255 -2.40956 9.58328
-417.139 119.876 -61.8811
-410.365 149.416 -46.926
-332.427 -5.14723 241.34
-336.554 -53.4768 257.498
-317.829 105.909 143.387
-324.42 46.5733 208.499
-364.275 -55.4417 139.071
-345.982 -0.812182 173.425
-363.748 25.427 73.1236
-393.533 149.213 -5.12179
-385.445 113.197 13.7517
-366.402 140.451 39.2442
195.43 284.636 162.203
225.607 273.164 99.9949
151.95 265.512 239.346
174.917 280.387 202.415
249.634 204.612 137.336
209.966 252.522 182.719
218.646 198.896 209.324
34.0856 116.593 431.875
61.6684 157.718 384.769
156.7 109.072 371.576
108.269 135.959 379.007
121.497 78.5965 415.1
94.1244 202.021 341.085
118.901 231.112 298.466
296.307 -1.2575 285.034
274.369 25.0593 313.688
275.093 -18.5554 333.72
253.061 114.626 262.096
267.586 70.0667 290.189
281.762 83.5277 238.315
216.04 30.7524 380.625
244.845 52.312 338.339
212.198 75.0825 356.298
163.373 208.168 282.257
187.505 134.213 325.813
209.284 163.4 269.225
-45.0729 79.1989 464.139
-5.21381 91.4404 458.079
-129.417 40.7991 446.242
-85.2397 60.5087 461.674
-4.82901 11.6345 494.975
-46.739 36.4335 485.139
-46.4568 -5.62535 495.869
-297.229 -75.8392 338.421
-268.357 -45.6735 370.462
-194.709 -126.348 427.638
-236.402 -78.9745 402.603
-227.365 -166.288 399.684
-233.588 -16.599 399.31
-194.353 8.85565 419.808
-2.14789 -255.916 492.134
-61.6244 -236.041 492.868
-56.6262 -284.111 488.565
-47.3792 -81.7986 494.241
-56.6522 -164.402 492.335
-0.899826 -108.59 499.905
-147.978 -239.179 466.737
-106.867 -215.128 483.786
-137.478 -189.536 462.723
-141.267 -12.8264 454.331
-143.528 -88.0021 459.45
-90.0025 -43.1794 484.321
-347.498 -101.278 236.032
-326.435 -96.9942 287.471
-369.121 -101.075 123.851
-364.373 -104.589 184.22
-322.355 -200.993 251.737
-350.721 -147.649 214.28
-344.123 -199.007 188.795
-353.94 -60.9362 -99.9121
-371.604 -65.2809 -55.6713
-344.872 -182.467 5.22555
-363.095 -126.664 -30.9537
-331.109 -175.649 -51.5451
-379.736 -74.9133 -7.89419
-379.624 -87.3085 49.4865
-251.358 -350.5 145.497
-286.067 -320.56 109.804
-252.666 -342.188 84.4259
-332.535 -252.92 158.145
-314.262 -288.652 135.017
-299.425 -289.179 200.348
-301.234 -271.955 14.6913
-313.421 -283.332 78.9105
-330.873 -245.392 48.6774
-368.6 -151.751 95.5839
-357.194 -200.678 74.9529
-358.919 -205.928 128.857
-308.272 14.3778 -183.266
-326.212 -29.0778 -149.753
-232.709 77.8862 -237.228
-281.66 50.7145 -212.875
-245.817 -114.044 -188.927
-263.087 -35.7444 -200.069
-212.364 -78.8894 -220.716
-2.31956 155.118 -318.817
-54.5397 137.492 -321.73
-43.0711 65.6735 -310.763
-48.9231 100.659 -322.597
-3.42333 82.6441 -320.758
-109.38 120.918 -310.301
-155.816 110.021 -286.373
-113.199 -193.566 -183.873
-110.999 -136.881 -211.191
2.15441 -147.792 -183.537
-161.703 -110.446 -233.61
-142.134 -123.975 -224.849
-165.375 -168.602 -210.114
-2.66743 9.80712 -282.511
-95.4279 -44.4826 -252.114
-50.9761 5.4591 -283.095
-154.015 58.5928 -262.281
[...]
POINT_DATA 642
SCALARS Mean_Curvature double 1
LOOKUP_TABLE default
0.00672113
0.00444063
0.00700901
0.00617403
0.0117099
0.00473876
0.0302468
0.00783168
0.00235935
0.00678212
0.0042605
0.00669426
-0.00247701
0.00399063
0.003908
0.00492603
-0.00310174
0.0039425
0.00393219
0.00197569
0.0169226
0.00693196
0.00445789
-1.64328e-05
0.00322606
0.00566082
0.00496977
0.00362764
0.0120765
0.0040417
0.0178973
0.00946803
0.00379248
0.00270472
0.00610561
0.00569756
-0.00245363
0.0161465
0.0214489
0.00395129
0.00545796
0.00931951
0.00699833
0.00604497
0.00919581
0.00658289
0.00514835
0.00514755
0.00736405
0.00445946
0.00614682
0.00906755
0.0037054
0.00714258
0.000367374
0.00544826
0.0106471
0.00915174
0.00405945
-0.0014675
-0.00134326
0.00388436
0.00681885
0.00674502
0.00682495
0.00917956
0.00494587
0.00499147
0.0020415
0.0141078
0.00810001
0.00514665
0.00913975
0.00270083
0.00849692
-0.0013774
0.00179384
0.00519527
0.00584102
0.00441395
0.00429179
0.00636129
0.00549876
0.00645358
0.00870235
0.00834891
0.00312604
0.00576776
0.000721801
0.00572306
0.0133043
0.00426047
0.00456051
0.0062054
0.00120352
0.0055229
0.00795929
0.00460262
0.00126305
0.00460484
0.0216714
0.00309952
-7.15655e-05
0.0172252
-0.00747163
-0.000498656
0.00480401
0.00512996
0.00844601
0.00815064
0.00886691
0.0124944
0.00508373
0.00430335
0.00228559
0.00492755
0.00691339
0.00523602
0.00658914
0.007736
0.0135241
0.00771258
0.0113788
0.00804878
0.00907161
0.0097676
0.00828709
0.00391071
-0.0031426
0.00795363
0.0123198
-0.00296052
-0.00252853
-0.0189652
-0.00216528
0.00650731
0.00477221
0.0119597
0.0115625
0.00651246
0.00641272
0.00602506
0.0081208
0.00339108
0.00698217
0.00431772
0.00218786
0.00585584
0.00749794
0.00714049
0.00515567
0.00691741
0.00624234
0.0175407
0.00550716
0.00628147
-0.000627574
0.0243549
0.00236346
-0.00279305
0.00378491
0.00863813
0.00609328
0.00833082
0.00890544
0.00301912
0.00912554
0.0042089
0.00911584
0.00904355
0.00557193
0.00558097
0.00604356
0.00577794
0.00562377
0.00647775
0.00641644
0.00303552
0.0056469
0.00323474
0.00131403
0.00247011
0.00739413
0.00504046
0.00663471
0.0063874
0.00322344
-5.76966e-05
0.00239448
0.000240585
0.00165472
0.00289771
0.00979766
0.00525095
0.00875551
0.0105082
0.0105458
0.0103769
0.00117222
0.00290745
0.00356957
0.00267087
0.00572603
0.00556949
0.00420809
0.0027654
0.00288258
0.00917428
0.00798727
0.00417961
0.00928584
0.0105021
0.00884858
0.00972327
0.00906537
0.00110628
0.00422456
0.00275463
0.00546263
0.00137162
0.00534025
0.00852227
0.00314649
0.00270236
0.0063011
0.00133901
0.0068148
0.00451508
0.00335732
-0.000908786
0.00821898
0.00799753
0.00699828
0.00646349
0.00767498
0.00403108
0.00537833
0.00672893
0.0058452
0.00607375
0.00395306
0.00143365
0.00536266
0.00560542
0.00859235
-0.00575932
-0.00757581
0.0174182
0.0144243
0.020139
0.0133155
0.00529764
0.00705213
-0.000371602
0.00524552
0.00978141
0.00617601
0.00476804
0.00465948
0.00802615
0.00684088
0.00632819
0.0146163
0.0147169
0.00813264
0.0152124
0.0110768
0.00932529
0.00786794
0.00763631
0.000195389
0.00814679
0.00720452
0.000998561
-0.00359894
0.00339755
0.0106536
0.000418103
0.00890439
0.00189221
0.0286059
0.0180606
0.00459469
0.00515672
0.00108345
0.00314999
0.00181522
0.000941356
-0.00183844
0.0131354
0.00535975
0.00694049
0.00770231
0.00615825
0.00501669
0.00906504
-0.00218573
0.00812241
-0.00100136
0.00659918
0.00214669
0.00279832
0.000366965
0.00256015
0.00613665
0.00460952
0.00546343
0.00610349
0.00694241
0.00420632
0.00665324
0.00433822
0.00596128
0.00631342
0.00548067
0.00301586
0.00236615
0.00158877
0.00945847
0.00761396
0.00486812
0.0079108
0.00922769
0.00996202
0.00972442
0.00707123
0.00548103
0.00103449
0.0055376
-9.80186e-05
0.00671325
0.00526799
0.00204745
0.00521839
0.00804274
0.00221682
0.00234989
0.00528002
0.0112768
0.00745364
-0.00176765
0.0026075
0.00184124
0.00539362
0.00552889
0.00581603
0.00170219
0.00962119
0.00306814
0.0052705
0.00285512
0.0050265
0.00537093
0.00116923
0.00802024
0.00297095
0.00643996
0.00647857
0.00571516
0.00789195
0.00607995
0.00609174
0.00742216
0.00405818
0.00478022
0.00658594
0.00519045
0.00471821
0.00676362
0.00975298
0.00322129
0.0026903
0.00330372
0.00501977
0.00307409
0.00191174
0.00371912
0.00595142
0.0111735
0.00381684
0.0133572
0.00592568
0.0188517
0.0127512
0.00113276
-0.000223619
-0.00622898
0.0131065
0.00298132
0.0218414
0.00163939
-0.00556238
0.0109739
-0.00523473
0.00238239
0.00732695
0.00655061
0.00553195
0.00327118
0.00573203
0.0115207
0.00531051
-0.00277912
-0.00154252
0.00909519
0.0144942
0.0184294
0.012396
0.0112221
0.0057141
0.00612903
0.012456
0.00675302
0.0105136
0.011246
0.0102214
0.0165649
0.00938528
0.00664442
0.00917941
0.00726294
0.00802961
0.00446233
0.00685922
0.00436339
0.0040987
0.00544878
0.00495702
0.0122106
0.00422796
0.00843223
0.00505884
0.00408568
0.00394167
0.00567048
0.00255457
-0.000167686
0.00336317
0.00377821
0.00424901
0.00844072
0.00624184
0.00840872
0.00698874
0.00687704
0.00569041
0.00983087
0.0108547
0.00817975
0.0044899
0.00462701
0.00544458
0.00461409
0.00450714
0.0126765
0.00478559
0.00431542
0.00669827
0.00413991
0.00955224
0.0087912
0.00665699
0.00871374
0.00628596
0.00923015
0.00573276
0.0065227
0.00482351
0.00208377
0.000677529
0.00903995
0.00317662
0.0100883
0.00637067
0.0112381
0.0157016
0.0184036
0.00500966
0.0147871
0.0023078
-0.00223888
0.00627557
0.0192283
0.0175934
0.00425237
0.00495372
0.0160354
0.000855425
0.0102435
0.0205955
0.000235504
-0.00173843
-0.00328343
-0.018342
-0.00185935
-0.00255448
0.0187168
0.0057044
0.000780128
0.0184076
-0.00215872
-0.00822998
0.00667601
0.00627931
0.00378069
0.00562326
0.00823764
0.0045612
0.00478921
0.00622428
0.00697561
0.00133986
0.00519218
0.006748
0.0169917
0.0125101
0.0154362
0.0197086
0.00591305
0.00595315
0.0041264
0.00564669
0.00412377
0.0039169
0.0017611
0.0040089
0.00666957
0.00489063
0.00599658
0.00661746
0.00700051
0.00401434
0.00703657
0.00728167
0.0058462
0.00185977
0.00595771
0.00730895
0.00698806
0.00357145
0.00873702
0.000178308
0.00651952
0.00262473
0.00309269
0.00792822
0.00168412
0.00692792
4.2124e-05
0.00707235
-0.00172815
0.00919303
0.00806996
-0.00227789
0.0056917
0.00263785
0.00703131
0.00717498
0.00572395
0.00728387
0.00573109
0.00267087
0.00914046
0.00952106
0.0100097
0.00654318
0.00269829
0.00287793
0.00407695
0.00031837
0.0045255
0.00742621
0.00520601
0.0051461
0.00435162
0.00618337
0.0103011
0.00893985
0.00656282
0.00667672
0.0027899
0.00437299
0.00410046
0.00614708
0.00634002
0.0061862
0.00519725
0.00482781
0.00147518
0.0230961
0.00679884
0.0198488
0.0103612
0.00258494
0.00650181
0.00516905
0.00397265
0.0125718
0.00548801
0.00523014
0.00418074
0.00426544
0.00565888
0.00511265
0.00627129
0.00479235
0.00286591
0.00363042
0.00245805
0.00498935
0.00467716
-0.000342534
0.0100304
-0.00645622
0.0128382
0.00809433
0.0111953
0.011077
0.0222775
0.0139317
0.0031543
0.00414184
0.000166526
-0.00504338
0.00415821
0.00224151
-0.000139764
0.00264911
0.000803316
0.0113295
0.0158297
0.0260719
0.00961138
0.000317381
0.00356736
-0.00273863
0.00217584
0.0074527
0.00751176
0.00421711
0.0104582
0.00551897
SCALARS CoVolArea double 1
LOOKUP_TABLE default
3193.8
3231.17
2586.29
2549.29
2348.67
2253.49
4428.91
2649.06
2811.45
2048.11
2946.61
2020.81
6008.73
3098.45
2653.9
2580.9
3758.19
4137.49
4285.28
3517.95
2518.99
4310.68
3054.13
5793.21
3369.94
2854.47
3349.4
3653.46
2229.64
3029.07
2161.39
2924.36
3382.37
3509.21
3308.36
3495.02
4503.2
1362.91
1330.68
3067.7
3197.8
3425.87
3319.02
2937.94
1987.03
2377.54
3397.38
2689.92
2836.62
3782.67
2655.38
2804.39
2578.72
2786.39
4040.61
2409.11
2549.83
1938.75
3550.31
4507.28
4253.31
3664.02
3163.33
3532.19
3088.25
3133.67
2607.62
3249.56
4743.03
2018.3
3201.82
2515.17
2690.74
3517.68
1503.7
5528.22
3167.28
3040.46
3342.76
2819.43
3617.95
2392.79
3038.24
2186.97
2637.72
1909.99
3483.68
3784.93
4130.86
4211.14
2459.26
3125.34
3211.62
3051.51
3591.25
3193.93
2659.58
2863.38
5340.03
3624.2
1953.49
3090.9
1601.34
2635.07
9565.65
5007.35
3235.02
2152.29
2801.43
2276.39
3077.82
2044.35
2994.67
3492.91
3138.72
3329.73
3310.78
2870.77
3336.29
3204.97
2293.28
2544.8
2822.4
3300.73
3237.05
2787.72
2518.8
3251.64
4766.43
2688.97
2550.74
5376.5
2840.98
7284.4
3120.39
2707.54
2762.35
1438.52
2238.57
2769.07
2913.64
3409.77
2599.57
3280.15
3063.12
3372.21
3365.96
4168.1
3225.42
2905.61
3561.73
3446.63
3374.51
2091.85
2957.15
3056.05
5282.64
2797.34
3214.35
5624.71
1711.03
2431.85
3624.2
2354.75
2431.88
3832.72
2339.64
4004.42
1962.55
1988.24
2727.99
2389.32
2423.42
2453.03
3086.24
2337.46
2386.93
4272.66
2655.88
4172.99
3143.01
3077.39
2418.8
3063.93
2917.31
2618.06
2963.24
3456.51
3774.56
4521.42
4528.74
4206.92
2266.56
3307.59
2506.44
1902.91
2724.93
2237.78
3720.84
3110.03
3108.18
3113.66
3045.18
2576.98
3143.05
3428.8
3390.47
2313.81
2655
3513.86
2180.34
2514.23
1915.9
1921.24
2300.78
4020.22
3666.95
3994.45
4126.03
4529.75
3499.48
2861.55
4494.43
4203.91
4050.15
4174.02
3719.13
4350.8
4202.89
4486.03
2684.37
3436.85
3094.04
3175.19
3034.87
3646.8
3210.77
3370.22
3408.9
3159.82
3739.3
4219.07
4213.85
4122.98
2924.86
4277.42
4489.6
2920.12
1739.42
1711.82
2865.74
3280.89
3269.25
5034.27
4153.65
3440.5
3682.23
4532.98
2720.7
2313.87
3059.75
3532
2653.01
2351.65
2465.7
2190.89
3457.37
4485.84
4406.4
3845.79
4103.92
2062.86
2680.52
3620.13
5241.29
3437.66
2329.56
3348.24
2169.41
3791.43
1352.73
1819.84
3150.25
2590.69
6091.6
4496.58
4190.42
5253
5598.07
2018.82
3342.84
3809.24
2387.09
3291.71
2681.56
1917.57
4711.01
2814.55
4441.22
2465.88
3117.34
3607.3
3467.65
3115.69
2899.46
3035.71
2371.78
2203.65
2182.85
3841.03
2276.71
3564.5
2256.13
2225.52
2919.07
4045.06
4134.76
4285.84
1968.16
1963.78
2964.58
2140.62
2009.35
1912.24
2637.53
2841.59
2768.07
4762.76
3423.5
3629.16
2572.26
3049.09
3033.08
3133.79
2821.99
3755.59
3975.58
3857.01
2162.77
2709.11
4034.62
3979.79
5226.64
4095.41
2650.22
2795.65
3587.57
2728.78
3398.73
2979.42
3469.38
3638.31
3402.01
3816.01
3182.54
3131.99
3659.51
3866.37
3057.01
2683.68
2726.69
3122.39
2694.73
3250.48
2851.74
2599
3243.89
3576.78
3517.25
3174.4
3485.49
3693.82
4058.96
3523.97
3368.22
4023.17
4074.32
3041.34
2740.37
2640.07
1801.15
1677.99
2216.42
3027.76
4398.77
6217.76
9177.24
2734.57
2024.44
1699.36
3997.12
4754.25
2643.15
5662.15
4490.89
5009.12
3247.93
3228.74
4361.5
3870.39
3113.65
4146.48
4560.44
3542.41
2675.46
2699.17
1720.11
1676.55
2824.58
3671.33
2705.31
2193.67
2450.86
3200.56
2291.89
2285.81
2178.12
2668.9
3191.09
4219.13
3671.83
4324.33
2941.58
3307.74
3395.7
3634.68
3255.35
2967.56
2537.6
2997.63
3167.49
2612.71
3250.66
2678.77
3322.76
3436.43
3865.73
3103.51
3156.66
3511.02
3069.17
3215.56
2811.38
3453.24
3271.48
3386.79
2163.14
2603.72
2734.55
4005.43
3653.08
3830.52
3504.45
3317.66
2894.65
2687.71
2992.04
2899.54
3190.55
2984.16
3184.02
3523.58
3297.75
3393.62
3298.86
3521.77
3335.58
3509.15
3718.56
3141.47
2787.18
3115.44
2779.76
2710.3
3019.03
2919.08
2892.89
2680.1
2593.18
3075.19
7270.9
2319.27
1813.1
1742.38
1883.45
2892.03
2387.05
2194.63
1801.63
1733.14
2690.32
7683.62
3770.47
6146.35
3930.93
3227.99
4398.73
1295.69
1512.81
4576.54
3537.7
10392.3
7528.62
7235.45
3021.4
2825.17
2344.38
2628.74
2707.13
2688.8
2779.17
3951.8
1572.16
2580.09
1556
1980.96
1231.82
1805.25
3405.83
3140.7
3429.57
2976.73
2866.67
2898.28
3275.37
3016.38
2952.71
3011.7
3067.13
3088.54
2692.11
3165.51
2546.98
2549.59
2862.93
3318.16
3170.43
3441.7
2968.35
3107.67
2628.97
3435.45
2444.34
2718.03
3117.58
2565.12
3746.52
2741.24
3786.21
3501.29
4101.92
3298.79
2944.5
4052.59
2632.92
3660.92
3462.01
2390.91
2814.28
2212.24
3070.67
4402.49
2009.55
2654.17
1943.41
2306.67
3101.45
4966.85
3973.69
4319.02
3539.09
3407.4
3128.03
3414.2
3768.21
3252.3
2891.55
2830.96
3401.05
3632.49
3441.83
3659.19
3232.67
3212.72
3205.15
3982.01
3868.57
4104.79
1815.54
1655.43
1228.13
1324.53
2576.67
3167.33
3007.47
2978
2821.4
2317.32
3438.7
3154.2
3144.82
3011.41
3162.7
3070.11
3298.71
3270.91
3207.09
4175.11
3820.71
3185.13
3692.65
5273.03
2660.94
3809.78
1778.32
3035.8
2674.09
2781.67
2071.73
1682.8
2824.51
5561.05
5176.67
6015.12
3257.42
4760.07
5099.67
4377.64
5701.78
2153.81
1646.07
1357.55
2043.64
2967.05
3188.07
4937.29
3321.42
2270.3
1896.67
3493.79
2102.74
3885.67
SCALARS SignedDistance double 1
LOOKUP_TABLE default
130.638
143.438
129.476
130.766
115.481
145.282
242.353
104.523
128.651
142.636
125.232
135.378
148.947
139.756
141.591
143.809
131.392
123.046
118.701
142.992
119.796
141.11
142.478
152.512
130.288
127.863
128.534
126.421
164.42
141.179
128.448
147.232
133.223
134.572
106.327
103.476
182.191
165.885
163.427
138.737
133.136
144.788
143.226
145.07
128.292
134.977
142.196
142.039
140.911
142.928
140.575
134.342
126.807
140.746
142.546
127.646
132.934
133.528
127.822
133.801
141.287
126.319
106.646
115.132
108.577
118.941
132.154
108.897
118.194
118.234
99.338
119.099
145.511
136.526
141.39
150.666
140.772
151.939
157.154
144.355
145.903
146.955
145.691
139.681
131.049
132.148
129.565
131.075
123.152
125.113
122.251
134.577
130.768
126.294
135.16
120.908
124.359
127.234
136.574
128.618
137.722
140.067
167.164
167.543
203.313
124.683
111.052
138.009
117.447
124.529
103.484
121.693
127.514
123.292
123.751
134.767
131.279
138.218
99.2234
116.483
125.76
139.715
160.807
95.5685
100.926
164.115
145.101
123.61
165.964
149.834
157.538
172.998
165.274
223.706
172.661
131.544
130.372
162.199
150.762
129.599
130.208
131.156
131.179
141.387
138.02
144.603
147.407
127.535
134.464
136.249
117.216
109.238
123.388
159.59
130.456
127.445
136.735
166.386
137.914
157.122
144.493
150.905
136.22
131.303
124.874
153.04
141.025
153.099
134.311
135.592
141.533
135.238
138.402
138.713
139.731
138.287
136.287
145.29
141.524
146.15
148.115
147.32
141.641
139.6
139.647
138.313
141.607
146.998
145.26
147.024
145.786
143.343
123.097
123.665
137.06
128.973
132.024
128.403
131.159
148.249
141.969
144.031
140.342
141.261
140.479
142.748
129.248
126.74
131.964
132.526
126.088
130.34
137.806
130.699
136.069
141.215
144.376
135.46
123.604
135.96
133.708
122.264
124.718
122.422
117.759
146.722
127.323
120.528
125.831
131.803
122.59
131.72
104.1
107.063
104.589
115.23
111.503
111.227
113.954
112.68
116.614
130.057
119.149
119.644
143.689
144.249
134.397
143.424
126.796
130.884
114.531
106.815
104.398
122.678
108.218
123.197
107.497
115.28
117.489
114.215
120.776
94.7684
105.879
111.608
124.861
116.556
117.767
128.314
115.79
102.081
151.44
131.243
136.896
154.923
154.44
128.272
130.523
144.055
139.113
140.67
138.165
131.9
141.572
138.851
146.331
144.57
143.06
145.595
149.424
142.854
150.556
155.702
139.191
151.969
146.1
141.843
156.946
148.34
155.937
144.056
148.519
147.231
148.662
144.889
142.391
143.163
144.882
143.021
140.63
149.863
145.415
150.516
140.457
142.488
143.517
147.484
148.913
151.439
135.104
137.708
137.939
135.093
127.999
129.526
126.093
132.591
132.843
131.113
130.282
133.633
132.72
135.568
120.109
121.451
116.218
132.08
123.86
130.849
128.933
129.668
130.955
135.322
134.01
131.487
137.486
133.721
138.382
139.7
129.689
130.518
132.012
122.877
126.527
133.538
128.334
130.898
132.477
137.934
122.786
124.312
128.049
125.462
122.704
123.713
127.042
125.112
126.961
137.79
130.744
128.435
128.407
125.863
146.198
130.581
131.911
128.96
134.516
110.467
124.726
151.559
140.795
144.683
133.056
137.246
178.946
175.932
218.691
158.983
165.525
164.506
175.491
175.878
183.277
147.885
174.83
149.427
107.106
108.019
124.838
110.995
132.191
113.351
131.555
153.091
144.008
121.096
133.788
132.503
136.604
140.746
125.437
120.405
125.075
117.065
115.308
127.556
123.797
109.058
102.187
123.348
103.584
109.827
127.613
124.937
127.897
129.167
124.37
129.837
124.376
121.528
119.015
138.728
136.751
143.557
131.312
136.636
135.455
135.136
135.832
132.837
103.03
104.416
115.152
109.833
105.054
101.572
132.618
119.883
129.124
126.024
125.537
121.156
137.089
141.016
123.613
130.34
165.687
148.584
157.287
100.616
93.583
103.888
92.7383
98.4598
95.1492
105.46
146.935
141.857
127.088
161.767
153.86
170.869
118.511
131.809
123.96
134.302
137.017
147.185
156.572
137.856
174.25
164.541
160.976
164.554
167.152
140.146
161.456
169.468
167.651
164.904
166.385
182.952
183.634
221.703
200.281
165.927
180.955
164.641
167.414
191.917
171.829
221.922
199.934
188.461
133.305
131.163
144.195
135.649
131.609
130.519
129.666
167.434
164.942
140.72
158.736
153.996
161.873
160.578
126.715
129.896
128.256
131.333
131.801
134.427
136.236
132.951
131.854
136.109
133.107
130.426
128.581
133.998
129.908
128.108
131.571
132.212
130.694
138.895
136.348
141.953
132.507
141.02
145.67
146.062
138.72
138.127
150.509
146.164
148.315
141.677
145.661
139.725
125.954
133.377
133.319
125.644
135.452
137.035
138.67
137.071
134.283
133.66
137.668
129.408
132.771
139.338
141.723
134.375
138.347
136.787
122.753
112.551
117.461
121.694
123.584
103.127
125.478
111.549
100.885
104.009
129.675
127.316
131.551
135.746
125.178
113.74
120.359
120.167
170.897
164.848
165.266
165.653
150.544
132.675
126.716
128.637
137.407
151.707
126.825
130.584
129.157
128.275
127.59
138.217
128.365
132.944
130.303
135.153
134.006
130.38
140.874
167.618
186.615
170.619
163.419
152.051
126.201
141.149
134.085
141.222
150.463
139.448
170.774
143.525
148.623
152.707
152.324
151.925
152.995
136.42
138.791
142.244
142.241
150.896
158.072
158.639
158.624
143.407
137.616
153.432
148.269
158.385
