# vtk DataFile Version 4.2
vtk output
ASCII
DATASET POLYDATA
POINTS 642 double
-318.23 479.468 95.848
314.48 474.928 94.6888
-317.886 -545.29 101.512
314.314 -541.704 102.289
-0.637988 -369.837 638.604
-0.728307 271.504 601.12
-0.325628 -332.799 -380.52
-0.29291 297.952 -436.352
518.05 -23.6675 -222.215
496.375 -35.2248 407.809
-524.496 -23.2527 -225.242
-503.636 -35.2933 410.987
-467.707 260.502 271.811
-293.448 145.717 576.127
-183.503 447.869 388.984
181.211 445.702 387.693
-0.261782 568.929 95.9071
189.508 463.311 -212.194
-191.168 465.65 -213.614
-312.991 160.194 -402.532
-514.849 284.933 -98.9163
-594.19 -30.1166 92.292
291.075 144.135 572.626
462.075 255.927 270.086
-304.06 -230.24 597.153
-0.387965 -34.5162 701.787
-484.062 -332.054 -85.9435
-486.235 -336.68 285.904
-0.635261 -23.8083 -512.435
-298.897 -214.757 -381.079
507.559 281.029 -96.5106
310.426 159.826 -401.218
480.32 -333.827 283.826
299.793 -229.43 593.625
191.456 -543.193 415.671
-192.925 -545.357 417.108
-0.888528 -635.79 111.091
-184.856 -509.366 -196.263
183.412 -506.969 -194.831
296.968 -214.345 -378.456
479.804 -329.512 -85.3311
588.925 -30.2878 91.9285
-413.579 386.693 187.775
-345.001 377.688 343.812
-259.915 486.994 251.962
-414.653 59.5991 509.638
-401.7 211.48 442.358
-504.106 116.24 353.955
-94.4531 372.65 507.27
-245.806 309.729 498.827
-151.208 219.008 610.317
-100.533 538.81 252.911
-164.666 550.027 97.1832
93.0858 371.755 506.146
-0.271913 466.206 402.458
163.537 549.208 96.5947
98.8982 537.372 252.538
256.717 483.271 250.775
-99.2147 547.544 -64.4104
-267.791 488.315 -64.0418
266.623 487.969 -63.2078
98.1208 545.455 -63.5386
-99.9731 400.804 -342.488
-0.446341 492.861 -231.046
98.8473 399.876 -341.645
-373.008 399.168 -169.757
-436.511 403.816 -8.60054
-161.32 239.883 -441.502
-265.274 332.516 -329.245
-549.4 134.999 -178.62
-438.844 237.172 -274.218
-440.957 73.9603 -334.2
-525.743 291.4 87.9037
-585.914 -22.7024 -73.3206
-599.272 135.95 -9.94503
-558.417 125.456 181.051
-566.742 -37.1677 259.946
339.884 373.585 341.442
408.053 381.562 185.096
149.101 217.713 607.585
243.44 307.636 496.496
497.75 115.133 351.516
397.754 209.304 439.507
410.353 58.5295 506.485
-154.75 63.7634 669.768
-0.635104 128.037 675.734
-417.015 -133.182 513.874
-313.228 -34.7858 605.75
-0.478295 -209.55 688.324
-157.938 -139.824 673.792
-162.035 -308.491 640.305
-567.399 -191.705 195.245
-514.146 -190.766 358.071
-519.332 -186.883 -163.009
-568.228 -189.152 0.0669228
-419.324 -458.927 197.635
-512.542 -351.518 99.2861
-417.425 -454.09 4.43013
-318.836 -24.7932 -410.911
-423.909 -124.554 -317.879
-0.332042 139.503 -504.804
-160.538 74.1301 -491.207
-156.983 -287.595 -409.195
-156.159 -123.122 -466.654
0.00978248 -177.477 -455.285
262.909 329.749 -327.061
159.995 238.929 -439.795
431.109 399.725 -7.22925
368.803 395.525 -167.5
436.826 72.0002 -330.942
433.365 234.372 -270.331
539.253 132.176 -173.887
415.089 -455.37 196.996
355.052 -457.51 361.87
262.075 -564.174 264.779
413.124 -131.335 510.045
410.968 -293.067 455.178
507.53 -188.936 354.979
100.058 -476.839 546.447
261.491 -402.599 530.124
161.158 -307.784 639.027
99.5932 -629.096 268.527
161.272 -609.113 106.527
-101.231 -477.984 547.748
-0.325793 -577.12 436.948
-162.589 -611.466 106.574
-100.317 -630.53 268.642
-264.842 -567.456 265.39
102.101 -586.983 -51.0949
257.864 -541.091 -53.4355
-259.509 -543.79 -53.4509
-103.47 -587.408 -50.9536
101.643 -435.05 -308.299
-0.222587 -509.259 -198.453
-102.95 -435.23 -308.767
349.475 -440.396 -152.714
413.057 -450.272 4.49395
155.442 -286.616 -406.247
252.09 -378.374 -306.79
515.229 -185.769 -161.203
409.664 -284.007 -250.322
420.899 -124.221 -315.396
505.835 -348.069 99.158
577.505 -23.8844 -70.7124
564.091 -187.418 -0.920457
558.443 -189.793 194.655
557.979 -37.4648 257.151
156.458 -139.519 672.375
311.124 -34.7703 603.019
152.666 63.1051 666.756
-359.331 -460.512 363.874
-263.821 -404.635 532.448
-416.364 -295.432 458.784
-253.105 -379.695 -308.323
-351.788 -442.384 -153.752
-412.529 -285.361 -252.329
318.052 -24.3564 -409.38
153.778 -122.736 -462.983
159.007 74.485 -489.522
550.469 122.596 179.96
587.378 133.089 -8.77651
517.699 287.757 87.8996
-370.222 437.908 141.738
-340.362 444.223 223.647
-290.723 489.732 176.31
-411.957 325.16 311.896
-382.231 387.414 270.966
-446.861 328.375 230.316
-223.87 473.078 323.281
-306.378 436.929 301.248
-267.922 419.054 369.834
-463.405 12.7201 463.837
-465.944 89.4813 435.814
-508.804 41.6153 385.079
-353.034 180.773 513.794
-412.223 137.968 480.065
-357.945 104.141 547.036
-490.039 187.83 317.056
-457.463 166.368 401.45
-439.3 237.83 361.961
-47.7415 323.854 556.609
-123.159 298.124 562.673
-76.708 248.411 611.412
-216.358 383.222 447.506
-172.167 345.769 507.152
-139.626 413.146 450.715
-223.61 184.295 597.796
-200.508 265.562 556.977
-271.867 229.153 542.558
-374.29 296.625 393.706
-327.332 264.045 474.566
-298.045 347.706 424.324
-216.242 526.201 176.464
-242.585 520.946 97.8507
-144.582 500.677 324.002
-181.587 519.254 254.669
-85.0231 568.06 96.2907
-133.635 551.012 176.41
-52.0633 560.574 175.006
46.3595 323.445 555.942
-0.603198 376.456 511.825
92.7736 462.58 399.555
47.7945 423.579 458.167
137.916 411.761 449.405
-48.8704 423.907 458.646
-94.1765 463.05 400.147
239.558 518.223 97.0505
213.642 523.019 175.381
286.946 485.555 175.422
51.1849 561.214 174.977
131.895 549.063 175.537
84.2938 567.235 96.2949
221.15 470.034 321.842
179.514 516.576 253.883
142.544 498.762 323.324
-50.8949 510.047 331.025
50.1171 510.668 331.507
-0.332272 541.481 253.672
-215.961 527.858 16.9359
-296.124 486.678 14.3301
-51.2806 566.852 15.4441
-132.892 554.427 16.1251
-231.721 481.259 -140.444
-182.322 524.972 -65.2116
-146.03 513.333 -141.39
293.214 484.06 13.4151
214.633 526.08 16.7902
144.683 511.192 -140.601
181.919 522.743 -64.0439
230.001 478.152 -138.399
132.278 553.357 16.8552
50.466 566.333 15.7862
-50.6903 353.589 -394.547
-0.329983 406.454 -348.666
49.9352 353.275 -394.203
-96.3023 485.817 -226.676
-50.5536 452.425 -290.365
-146.724 438.578 -281.748
145.083 436.851 -280.483
49.6955 452.022 -290.113
95.1304 484.536 -226.08
-0.678643 555.36 -66.7839
49.5495 526.406 -150.006
-50.744 527.438 -150.262
-361.301 456.368 -39.7417
-380.649 442.197 39.9174
-286.504 436.262 -193.87
-326.979 451.828 -119.642
-482.5 351.254 -54.6783
-410.635 407.863 -89.6781
-449.81 347.928 -137.281
-81.7326 272.045 -444.613
-132.393 325.594 -399.383
-292.407 249.618 -371.631
-214.595 290.047 -391.836
-237.782 201.382 -427.315
-183.393 371.567 -341.709
-231.407 405.707 -276.382
-542.803 56.8217 -206.028
-503.788 106.101 -263.261
-488.56 26.3047 -283.626
-483.525 264.845 -191.049
-499.2 187.916 -229.761
-537.164 211.522 -140.574
-384.738 119.654 -375.916
-446.261 156.201 -310.717
-382.98 201.352 -345.433
-326.258 372.527 -255.655
-359.594 290.767 -307.893
-411.974 324.2 -227.034
-430.058 397.644 88.0435
-529.98 294.885 -5.42204
-487.342 351.276 39.0202
-472.966 340.106 135.655
-501.902 279.17 176.72
-562.069 -23.2616 -151.082
-579.048 56.9443 -127.382
-602.625 58.8082 36.9462
-602.215 59.3111 -43.6366
-592.219 -23.8922 9.2524
-582.307 137.891 -94.1382
-567.088 212.924 -56.3205
-541.741 41.0495 310.409
-540.35 -35.9848 337.664
-518.799 192.804 226.854
-533.928 119.087 272.79
-583.711 -35.9901 177.685
-564.884 43.3323 225.108
-581.418 50.4102 135.933
-570.269 217.318 39.1437
-592.453 136.923 85.5087
-555.766 212.589 133.458
335.676 439.703 222.294
365.948 432.814 139.979
264.457 415.72 367.782
302.3 432.985 299.307
440.16 322.964 226.861
376.31 383.223 268.675
404.982 319.666 309.352
75.0718 247.65 610.039
121.535 297.095 560.844
269.493 227.494 539.403
198.534 264.154 554.199
221.311 182.755 594.044
170.376 344.199 505.244
213.88 380.908 445.722
501.797 41.2121 382.39
460.464 88.2672 432.796
457.934 12.4879 460.93
435.086 234.575 360.462
452.457 164.727 398.659
484.482 185.447 315.671
354.527 102.647 543.769
407.868 136.33 476.811
349.604 178.966 510.505
294.581 344.409 422.131
324.283 261.726 472.079
370.172 292.914 391.964
-77.5753 177.305 651.013
-0.688609 202.745 644.089
-226.274 107.05 629.027
-155.138 143.596 646.038
-0.613823 48.9114 695.375
-78.8975 96.9538 679.721
-79.0124 16.1753 694.436
-466.352 -82.8487 465.527
-422.682 -34.6798 516.882
-309.319 -134.051 601.298
-369.495 -84.6135 564.496
-364.54 -184.029 558.798
-368.005 13.3531 562.522
-307.813 57.4756 597.032
-0.498682 -292.268 672.812
-82.3469 -263.442 675.196
-81.8339 -342.759 645.315
-79.4738 -86.2105 696.865
-81.3336 -175.005 687.454
-0.360869 -120.639 698.786
-237.565 -271.189 626.279
-164.06 -227.807 667.664
-233.73 -189.263 644.633
-236.355 14.6162 643.59
-237.88 -87.4445 646.855
-157.499 -34.7183 678.297
-549.61 -113.524 311.614
-514.226 -112.991 386.915
-585.656 -114.12 146.67
-575.091 -114.752 229.499
-504.886 -266.027 324.608
-546.054 -192.336 277.785
-533.718 -266.339 241.543
-523.517 -106.117 -195.006
-557.931 -106.673 -119.589
-532.5 -262.957 -44.6826
-550.381 -189.673 -84.0592
-505.387 -261.074 -126.58
-580.538 -109.447 -37.2586
-589.699 -112.41 46.3153
-372.401 -507.239 150.084
-425.157 -463.001 99.9437
-371.719 -504.308 52.2458
-505.995 -348.175 192.434
-471.674 -408.487 148.08
-457.627 -401.467 243.289
-455.059 -396.361 -42.0429
-470.473 -406.897 51.2976
-504.116 -346.017 6.36724
-577.618 -194.458 97.9331
-547.999 -274.029 50.1568
-548.843 -275.051 147.634
-438.037 -23.8765 -330.848
-476.309 -74.0397 -274.789
-322.229 70.362 -416.11
-385.433 26.1232 -378.891
-363.997 -172.087 -353.685
-376.149 -75.3582 -368.701
-312.497 -123.296 -401.729
-0.323564 221.147 -475.558
-81.4273 192.322 -480.17
-79.7246 26.171 -509.94
-82.0109 107.398 -506.413
-0.370836 58.2423 -517.043
-163.584 156.149 -473.12
-238.852 119.322 -456.073
-87.1807 -312.643 -401.233
-85.5463 -238.123 -437.554
-0.24128 -257.538 -420.808
-229.874 -172.469 -428.91
-159.399 -208.52 -441.055
-228.206 -253.208 -399.352
-0.495036 -100.437 -494.516
-81.0245 -151.072 -468.111
-77.8564 -71.7663 -496.798
[...]
POINT_DATA 642
SCALARS Mean_Curvature double 1
LOOKUP_TABLE default
0.00296302
0.00232943
0.0038767
0.00357068
0.00449791
0.00393068
-0.00169962
0.00412615
0.00366506
0.00378723
0.00404167
0.00397642
0.000629144
0.00306442
0.0034352
0.00344408
0.00188054
0.00302214
0.0030511
0.00215806
0.0033713
0.00268008
0.00312822
0.000706438
0.00426382
0.00282356
0.00310597
0.00287912
0.0043008
0.00310697
0.00341141
0.00279002
0.00301975
0.0043769
0.00332775
0.00338245
0.00347316
0.00397499
0.00329809
0.00318037
0.00318827
0.00342896
0.00223705
0.00369185
0.00374687
0.00345735
0.00322988
0.00335433
0.00338936
0.00281788
0.00364968
0.00403654
0.00323244
0.00336688
0.00187029
0.00380361
0.00385301
0.00374629
0.00335765
0.00117058
0.00250385
0.00293965
0.00350924
0.00362168
0.00354105
0.00365874
0.00468665
0.00344072
0.00170096
0.00474438
0.00365955
0.00381726
0.00448006
0.00294503
0.00567721
0.000872121
0.002935
0.00354117
0.00180163
0.00347497
0.00287906
0.00341928
0.00329341
0.00349262
0.00385615
0.00372026
0.00193834
0.00319108
0.00248865
0.00161188
0.0031572
0.00305573
0.00286393
0.00342758
0.00243255
0.00283716
0.0036791
0.00321777
0.00116164
0.00280982
0.00391434
0.00439782
0.00501722
0.00307562
-0.00109768
0.00156752
0.00339101
0.00439365
0.00356887
0.00435609
0.00367396
0.00381878
0.00315101
0.0033349
0.00327334
0.00258735
0.00314516
0.00290445
0.00364692
0.00357926
0.00363876
0.0040611
0.00214174
0.0037277
0.00356708
0.00215181
0.00405359
0.00368951
0.00337814
0.00295499
0.00270882
0.00298687
0.00385844
-0.00322737
0.00357329
0.00352345
0.0031494
0.00418506
0.00340794
0.0034523
0.00337661
0.00305441
0.00368868
0.00220753
0.00344198
0.00296119
0.00268292
0.00197966
0.00352078
0.00370616
0.00337457
0.0035147
0.00309364
0.00322468
0.00347255
0.00335482
0.00205787
0.00242412
0.00470335
0.00071608
0.00504495
0.00425901
0.00223404
0.00364739
0.00370697
0.00351695
0.00381274
0.00257208
0.00383542
0.00380912
0.00355259
0.00335274
0.00342908
0.00337779
0.0033668
0.00348163
0.00344888
0.00287661
0.00342349
0.00239763
0.00252221
0.00252574
0.00371924
0.00294511
0.00323043
0.00297607
0.0031878
0.00238601
0.00269817
0.00190664
0.00254413
0.00276827
0.00376204
0.0032094
0.00386515
0.00379742
0.0044302
0.00364003
0.00280561
0.00252409
0.00287433
0.00320827
0.00306583
0.00295847
0.00304487
0.00306038
0.00313589
0.00358933
0.00360906
0.00343504
0.00331009
0.00432205
0.003815
0.00381099
0.00376162
0.00324133
0.00385521
0.00216035
0.00321089
0.00056117
0.00320278
0.00321882
0.00168883
0.00291132
0.00326912
0.000447744
0.00336839
0.00325067
0.00277551
0.00104741
0.00337043
0.0032298
0.00354212
0.00353731
0.00363528
0.00324126
0.00341806
0.00354119
0.00350004
0.00354039
0.00325244
0.00343805
0.00313528
0.00321941
0.00590286
0.00256516
0.00319936
0.00427309
0.00509865
0.00390067
0.00333434
0.0034919
0.00354003
0.00161019
0.00350132
0.00289655
0.00354188
0.0023947
0.00375645
0.00522331
0.00352745
0.00363015
0.00329956
0.00294825
0.00558025
0.00379879
0.00379823
0.00389903
0.00400626
0.00365832
0.00263762
0.00426737
0.00417133
0.00265451
0.00284025
0.00316864
0.00411727
0.00411767
0.00567991
2.74234e-05
0.00451679
0.00469224
0.00323859
0.00325711
6.44757e-05
0.0025604
0.00247788
0.00195799
8.59233e-05
0.00374892
0.00584173
0.00488594
0.00361772
0.00182004
0.00348235
0.0038212
0.00179899
0.00391153
0.00266474
0.00364564
0.00249695
0.0027427
0.00238118
0.00294514
0.00324217
0.00296583
0.00342326
0.00342413
0.00355657
0.00285963
0.00347331
0.0032022
0.00342446
0.00343458
0.00332643
0.00269151
0.00269377
0.00208197
0.00387156
0.003757
0.00327835
0.00377769
0.00380072
0.00384713
0.00373802
0.00357773
0.00342941
0.000860916
0.00306813
0.00375362
0.00348399
0.00322755
0.00451613
0.00410661
0.00366074
0.00353094
0.00210659
0.00245243
0.004673
0.00528617
0.003778
0.00288998
0.00264333
0.00287303
0.00370567
0.00328834
0.00241104
0.00425132
0.00286196
0.00280398
0.00311895
0.00226091
0.00236939
0.00248854
0.00362407
0.0029802
0.00308915
0.00314422
0.00297874
0.00377225
0.00359304
0.00337502
0.00354523
0.00282824
0.00312124
0.00355478
0.00331605
0.00399101
0.0034707
0.00369127
0.00368366
0.00194425
0.00285134
0.00381348
0.00299352
0.00215321
0.00314838
0.00344802
0.00299973
0.0037648
0.00486082
0.00449406
0.00304979
0.00468457
0.00336211
0.00348622
-0.000808147
0.00291095
0.00385773
0.00282572
0.00470095
0.00153053
0.00398553
0.00287045
0.00242674
0.00212858
0.003493
0.00355799
0.00210051
0.00354349
0.00258302
0.00332964
0.00253343
0.00343743
0.00566693
0.00330691
0.00390994
0.00507217
0.00392382
0.00386653
0.00412657
0.00418973
0.00443072
0.00369823
0.00375281
0.00413628
0.00317531
0.00356952
0.00361096
0.00382742
0.00365836
0.00387687
0.00295945
0.00276375
0.00307318
0.0029837
0.00280757
0.00315336
0.00377424
0.00392741
0.00369673
0.0032956
0.00250495
0.00342931
0.00340967
0.00337386
0.00196842
0.00286593
0.00323647
0.00316532
0.0038719
0.00329376
0.00309645
0.00347561
0.00344683
0.00347411
0.00453576
0.00354788
0.00379184
0.00313147
0.00354682
0.00362317
0.00228337
0.00281439
0.00285047
0.00529313
0.00353077
0.00348289
0.00346367
0.0037649
0.00375842
0.00361779
0.00382152
0.00357823
0.00394329
0.00359577
0.00249851
0.00274943
0.00228306
0.003732
0.00356091
0.00385609
0.00358242
0.00475364
0.00303502
0.00406827
0.00401886
0.00550219
0.00275545
0.00316067
0.00189959
0.00379162
0.00308472
0.00285941
0.00475743
0.00341722
0.00289963
0.00457817
0.00375527
0.00279315
0.0034984
0.00197531
0.00434749
-0.00317199
0.00424704
0.00410504
0.00447499
0.00506727
0.00492838
0.00436361
0.00382917
-0.00198686
0.0034265
0.00352526
0.0030472
0.00339447
0.00342039
0.00343576
0.00313745
0.00334437
0.00347532
0.00379823
0.004719
0.00354795
0.00310915
0.00314083
0.00363613
0.00314702
0.00261117
0.00339494
0.00187104
0.0033124
0.00309779
0.00308165
0.00287876
0.00301406
0.00338507
0.00347639
0.00349005
0.00346704
0.00353652
0.00305774
0.0035627
0.00339336
0.00326162
0.00277984
0.00279968
0.00373033
0.00336764
0.000631028
0.00361167
0.00264164
0.00395269
0.00280384
0.00315712
0.00308967
0.00243617
0.00404875
0.00205986
0.00324698
0.00253944
0.00384516
0.00430282
0.00335463
0.00525274
0.0018196
0.00399467
0.00358027
0.00340289
0.00361109
0.00327555
0.00138874
0.00390269
0.00370145
0.00388875
0.00371753
0.0029739
0.00263127
0.00286317
0.00246675
0.00304743
0.00362812
0.00360119
0.00302934
0.00312851
0.00346774
0.00357319
0.00341607
0.00350122
0.0034692
0.00234105
0.00320881
0.00342498
0.00356965
0.00330939
0.00354452
0.00355172
0.00328582
0.00474281
0.0029315
0.00444284
0.00296106
0.0034424
0.00302469
0.00337884
0.00318505
0.00328405
0.00328248
0.00324845
0.00332422
0.00307543
0.00310721
0.00328115
0.00344282
0.00344585
0.0034615
0.00345911
0.0028491
0.00214576
0.0039711
0.00358129
0.00395904
0.00358011
0.00260098
0.00330008
0.0029883
0.00297566
0.00469291
0.0031346
0.00486761
0.00391624
0.00202899
0.00206002
0.00207562
0.00311171
0.00151601
0.00156333
0.00270896
0.000104328
0.00444336
0.00495262
0.00404082
0.00585829
0.00354096
0.00355517
0.00317337
0.00352896
0.00390112
0.00422383
0.00499036
0.00394149
0.00472325
SCALARS CoVolArea double 1
LOOKUP_TABLE default
5978.65
5956.41
5771.36
5705.43
6064.51
5456.96
5925.03
6016.31
5789.37
5402.04
5917.43
5487.84
7710.15
7133.22
7053.95
6988.7
7465.38
7791.09
7826.53
7835.55
7887.51
7730.21
7059.5
7597.12
7419.84
7391.03
7346.78
7497.18
7082.82
7255.65
7677.34
7713.21
7336.26
7372.1
7890.64
7940.89
7337.63
6869.22
6837.45
7178.89
7234.46
7412.4
7164.17
7362.36
6744.16
6685.04
7452.08
6704.69
6747.97
7542.92
6694.97
7522.86
6958.13
6722.9
7578.25
6866.73
7490.66
6660.79
7872.98
7488.35
7293.88
7910.44
7346.22
8004.59
7308.38
8119.96
6997.58
7424.49
8423.45
7348.41
8249.49
7096.81
7616.63
7216.95
7556.93
8030.68
6855.64
7285.59
7061.7
6674.98
7446.67
6534.41
7293.51
6559.24
7512.52
6682.71
7103.99
7797.62
7348.55
8031.98
7332.8
7583.86
6986.1
7066.63
7750.8
7153.58
7576.61
6911.14
8167.51
7171.36
7251.59
7778.56
6383.65
7776.08
7393.35
8325.2
7402.79
6846.25
8002
7002.79
8079.65
7201.49
7028.29
7882.91
7103.66
6980.82
7731.64
6815.4
7566.71
8064.98
7261.73
7908.19
7149.93
7593.03
8369.63
7177.63
7942.58
7194.74
7609.31
6855.08
6913.41
7646.74
6509.71
7960.24
6532.76
7394.58
6830.69
6416.22
7360.45
6923.4
7485.72
7081.26
7460.24
7111.42
7516.69
7506.94
6771.67
7969.11
7639.06
7500.27
7995.43
8177.26
7859.23
7441
7499.23
7570.59
7980.98
7814.46
7738.23
7892.3
7377.69
7393.99
7104.93
6991.35
6857.63
7531.49
6858.05
7002.42
6578.95
6702.6
7283.68
6583.43
6705.47
6553.71
7320.78
6678.35
6604.64
7022.59
6727.39
7589.89
6660.96
6841.59
6537.97
7354.64
6836.52
6639.22
6669.61
6886.78
7440.28
8447.48
8441.61
8384.28
6922.96
7068.35
7304.55
6802.45
6887.07
6912.96
7647.35
6653.75
6844.35
7337.52
6841.46
6590.84
6862.86
7404.27
7002.42
6865.21
6821.32
7622.44
6879.39
6835.25
6508.63
6768.99
7243.3
8405.62
8355.65
8541.16
7413.68
7341.45
7743.2
7123.66
7402.49
7440.52
7987.15
7209.9
7265.13
7990.87
7384.77
7337.51
7077.13
7741.02
7240.05
7416.88
7218.64
7964.41
7380.62
7287.8
7248.64
7355.75
7930.97
8784.02
8857.64
8854.62
7206.42
7104.51
8099.13
7352.59
7152.28
7239.94
8180.58
7268.79
7440.34
8350.34
7623.84
7437.02
7555.61
8214.94
7037.48
7307.76
7056.59
8283.32
7580.22
7463.2
7093.84
7383.01
8130.99
9163.36
9228.54
9157.87
7239.07
7851.22
7134.49
7132.29
7766.93
7067.65
7196.07
7650.65
7037.89
7254.01
7282.21
7969.12
6890.78
6606.03
8058.22
7274.4
7116.34
7402.99
8041.65
8495.88
8419.97
8490.9
6911.16
7024.9
7202.56
6593.37
6955.77
6811.98
7505.77
6524.71
6815.8
7351.75
6838.29
6645.57
6778.81
7281.17
6438.65
6571.08
6449.04
7422.71
6555.86
6814.24
6497.81
6573.18
7213.91
8283.53
8297.9
8316.15
6699.99
6475.58
7409.91
6731.36
6715.57
6783.59
7529.34
6782.66
6919.72
7917.77
7150.08
7015.7
6869.37
7442.74
7154.16
7327.11
7282.9
7870.64
7414.31
7254.54
7013.84
7183.77
7783.3
8583.38
8926.71
8737.92
6856.1
6735.49
7635.91
6877.65
6977.09
6991.7
7638.78
7164.16
7287.56
7672.89
7127.57
6888.24
7348.25
7847.12
6988.33
7022.7
6792.43
7625.74
7045.46
7061.7
6840.13
6954.7
7579.77
8475.6
8502.45
8445.14
7239.92
7158.03
7940.97
7263.43
6942.01
7326.41
7831.1
7271.51
7465.96
7549.78
7184.22
6862.66
7363.82
7899.77
6647.69
7066.15
7394.46
7620.1
6815.94
6653.01
6757.19
7122.83
7491.32
8911.42
8733.81
8936.21
7408.91
7241.26
8158.34
7515.37
7343.78
7557.59
8181.95
6976.52
7058.74
8016.15
7137.03
7004.85
7248.22
8015.29
6892.17
7193.8
6882.84
8003.29
7299.03
7038.95
7264.04
7419.05
8079.48
9045.4
9005.63
9072.11
6892.28
7217.86
7017.51
7730.89
7194.76
6908.07
7141.4
7205.77
7936.08
6632.24
6995.72
6597.01
7649.95
7063.58
7022.1
6826.47
7003.16
7644.57
7421.34
7608.48
7284.06
8087.48
7571.71
7456.88
6893.47
7425.39
7748.35
8749.98
8772.79
8880.61
7262.47
7006.11
8086.7
7183.85
6886.86
7164.87
7648.41
7417.76
7666.14
8302.37
7685.79
7494.57
7664.78
8276.85
7090.68
7321.79
7132.65
7632.04
7176.54
6866.24
7238.55
7263.24
8139.54
9137.52
9150.81
8820.67
7059.77
6790.89
7892.24
6955.64
6621
6797.83
7058.59
6831.25
7093.02
7088.17
6811.69
6677.94
6975.09
7900.07
6709.92
7242.89
6736
7154.93
6951.79
6236.31
6250.79
6979.41
7195.59
9175.72
8703.95
8669.26
6910.62
6751.08
7309.82
6820.29
6735.04
6853.61
7386.79
6620.35
6373.23
7308.61
6654.23
6604.37
6513.28
7242.46
7022.38
7093.35
7034.69
7428.49
6916.82
6769.46
6880.62
6966.85
7399.12
8240.39
8249.13
8282.72
6930.16
7473.49
6862.34
6910.47
7453.73
6941.97
7141.31
7597.84
7103.31
7023.89
6921.37
7514.67
6688.5
6520.56
7458.21
6802.51
6904.85
6756.7
7518.39
8383.28
8410.1
8336.89
7307.74
7696.87
7126.24
7387.19
7818.56
6760.22
7327.79
6709.08
7025.84
7826.17
6671.55
7499.19
6755.46
6708.84
7376.76
8817.14
8523.33
8698.27
7303.86
8050.46
7308.16
7294.4
7851.63
7636.68
7884.93
7525.59
7623.72
8168.29
7152.95
7769.45
7134.43
7149.87
7724.69
9011.19
8928.45
8868.76
6367.62
7285.31
6518.5
6691.97
7421.19
6986.39
7503.76
6967.04
6931.95
7397.51
7216.54
7477.37
7055.58
7015.07
7535.96
8331.36
8380.36
8343.28
7117.23
7751.5
7196.63
7109.13
7786.87
7008.9
7481.72
7044.23
6823.5
7606.47
7442.14
7812.28
7316.96
7135.7
7524.71
8932.1
8771.96
8843.75
6801.34
7753.81
7259.52
7127.96
7905.5
7049.16
7727.95
7079.41
6894.04
7435.11
7039.21
7582.78
6924.35
6936.85
7648.91
8245.76
8285.97
8314.9
SCALARS SignedDistance double 1
LOOKUP_TABLE default
339.73
355.88
339.688
348.735
275.976
375.811
441.232
280.891
338.312
377.155
326.47
360.301
390.206
370.371
367.994
374.756
343.671
317.219
309.133
311.822
272.338
363.959
379.874
404.1
333.377
335.208
345.152
337.161
371.339
359.193
291.881
317.974
352.872
346.03
283.939
276.239
397.253
386.065
382.211
364.165
355.824
375.117
361.568
374.571
344.205
362.783
381.464
378.122
376.816
381.554
370.964
349.181
331.657
380.271
376.147
337.185
348.763
356.318
326.398
333.009
342.234
327.476
287.239
302.958
291.606
289.152
324.962
288.899
298.231
279.752
267.769
307.986
352.191
341.175
327.831
388.16
370.332
389.686
381.864
379.126
390.074
392.168
392.324
374.935
347.577
348.416
347.648
350.785
321.981
331.527
291.599
351.774
348.716
340.043
350.048
328.223
334.457
342.375
344.93
342.421
301.59
334.119
398.604
383.485
430.886
306.871
294.866
337.2
296.858
317.53
281.527
297.851
342.377
326.085
326.825
360.555
344.638
365.497
264.232
299.582
300.014
319.363
364.743
257.73
256.788
365.838
318.471
318.234
408.297
367.017
363.995
413.787
412.551
442.701
418.333
357.104
353.006
392.053
369.197
349.649
354.429
350.711
350.868
352.576
362.216
371.256
388.968
337.177
358.908
357.541
311.633
287.171
328.188
367.264
351.455
346.863
355.137
378.912
338.224
403.103
347.199
368.63
347.771
349.411
337.571
384.244
366.307
378.884
355.58
358.126
368.845
361.287
369.933
369.09
375.677
372.095
365.884
386.388
379.38
387.293
380.313
378.432
371.1
375.998
377.667
373.715
372.562
380.48
380.77
386.737
384.118
381.283
333.091
332.433
356.402
342.541
335.057
335.91
347.117
381.385
380.576
374.252
377.578
379.106
377.368
372.194
344.01
342.751
351.869
345.964
339.166
335.458
364.932
349.499
360.392
369.108
368.348
357.532
329.956
340.169
333.621
325.743
321.699
326.342
315.329
349.535
336.362
321.767
331.388
329.66
328.671
331.399
281.938
286.603
283.616
304.261
294.762
296.462
303.05
296.723
308.487
331.568
315.85
314.178
332.404
352.146
316.131
314.19
297.785
296.804
274.058
283.183
283.808
300.553
291.149
299.737
290.332
301.337
304.503
291.116
314.448
261.939
265.015
266.136
309.764
279.189
285.823
295.574
283.964
271.605
359.824
311.986
334.722
372.056
386.108
330.443
312.167
362.51
336.775
351.469
291.287
293.274
374.558
365.202
388.804
383.708
371.834
380.347
379.454
332.567
366.109
374.035
366.16
366.906
380.19
372.439
398.285
384.391
400.47
375.8
383.797
389.234
387.94
381.592
384.444
384.404
384.934
383.252
375.116
399.039
391.466
399.594
376.729
383.811
386.097
392.023
393.814
398.34
357.079
361.771
361.571
358.162
338.417
344.215
336.253
352.485
354.498
345.326
348.447
347.153
356.193
359.748
304.576
307.766
283.111
337.26
326.113
332.042
311.74
322.126
339.065
352.892
346.776
343.204
358.419
354.323
361.478
359.499
343.578
349.664
344.795
333.215
335.297
347.513
342.453
345.254
342.287
354.029
330.736
333.054
340.883
334.836
330.464
331.267
343.401
336.946
341.47
353.338
343.188
339.371
333.229
334.006
335.082
330.565
350.802
343.566
353.062
285.24
291.472
351.294
318.998
335.767
301.137
322.117
423.197
420.258
438.194
368.961
392.659
372.224
406.296
411.07
394.822
355.054
371.421
357.459
289.454
286.304
311.041
298.386
309.215
300.158
307.808
362.161
339.252
288.42
307.84
313.84
317.81
316.698
326.723
302.467
318.956
294.52
292.878
313.436
287.777
283.481
279.522
298.907
282.943
290.72
343.103
332.585
339.388
341.015
334.646
345.791
301.604
323.503
304.792
368.775
364.127
374.003
342.959
357.364
357.251
359.642
358.118
349.982
264.742
277.279
285.149
288.226
279.478
271.576
323.425
295.674
318.846
333.889
325.625
312.155
341.264
353.973
290.25
322.408
382.215
347.861
355.964
260.615
252.367
263.658
252.008
264.032
255.634
268.755
349.893
338.607
332.939
359.644
346.84
385.666
293.567
316.222
286.267
281.631
278.842
322.688
368.211
359.365
410.099
389.126
373.354
382.439
398.479
352.974
366.561
402.413
386.147
372.522
393.021
415.639
427.645
442.247
436.498
413.725
429.261
399.745
403.888
436.076
418.697
437.839
435.886
429.352
357.482
351.341
365.775
361.089
354.403
355.018
353.913
415.072
403.136
365.63
377.544
373.475
385.879
374.641
342.973
348.627
342.413
354.075
352.899
355.032
358.714
354.364
357.665
361.783
358.916
355.22
346.267
356.474
350.609
345.94
351.415
342.72
346.065
364.839
353.644
362.137
352.767
360.185
377.769
384.465
361.807
366.572
388.687
380.037
381.571
362.308
374.135
359.099
309.671
348.542
329.417
328.56
340.029
366.384
369.155
366.631
358.983
353.888
362.52
342.556
350.207
367.475
371.412
352.859
361.619
352.742
325.661
293.375
310.861
322.83
326.347
271.199
304.708
285.274
270.687
277.718
348.601
333.796
341.232
339.843
328.385
297.763
310.072
318.018
409.124
374.093
390.386
377.821
362.371
350.515
345.671
347.473
356.72
363.063
339.733
351.354
346.129
343.998
345.269
357.77
348.48
353.793
342.101
360.495
352.356
338.106
340.139
413.201
395.434
407.162
387.394
371.393
294.288
330.858
306.215
321.622
353.331
362.067
371.533
359.388
392.098
391.145
397.877
399.949
403.988
327.593
315.658
312.577
352.497
375.757
373.23
400.784
387.099
349.855
330.536
382.99
352.486
390.694
