# vtk DataFile Version 4.2
vtk output
ASCII
DATASET POLYDATA
POINTS 642 double
-174.696 267.549 91.3536
162.267 253.851 78.8974
-194.15 -323.814 123.746
178.964 -317.581 128.307
-4.75551 -294.316 440.14
-6.78919 88.6753 380.953
1.36281 -179.517 -116.807
-2.91097 187.944 -254.06
298.496 28.7599 -96.4039
241.937 -53.0841 276.432
-316.256 31.8626 -99.6186
-265.15 -56.8708 278.55
-218.692 133.289 165.28
-152.162 31.0286 361.48
-105.017 239.025 214.764
90.0487 237.652 213.212
0.461563 306.094 72.4379
110.213 256.631 -116.604
-111.813 264.403 -120.037
-198.923 112.056 -183.421
-347.013 173.822 -66.729
-320.395 -38.9331 53.518
145.703 27.3146 352.774
210.391 111.562 165.464
-151.498 -215.983 392.499
-3.28903 -42.445 445.553
-271.312 -206.14 -2.46804
-266.996 -228.125 211.091
-5.08795 69.675 -247.129
-182.24 -126.466 -157.338
322.569 167.249 -66.0354
194.381 106.746 -187.395
248.588 -222.989 205.435
135.688 -211.02 385.221
98.393 -375.393 326.105
-105.342 -378.93 330.575
-1.78747 -349.841 214.32
-175.983 -263.572 -41.7831
162.527 -263.979 -42.0225
172.22 -127.794 -148.943
258.095 -200.287 -6.67063
307.787 -34.3555 45.1629
-207.627 224.673 118.435
-166.338 221.214 191.61
-141.779 277.029 160.038
-219.278 -5.70537 328.847
-207.669 66.3838 286.379
-255.696 19.3719 247.386
-55.6393 180.14 300.553
-114.759 147.835 299.558
-61.2046 65.6227 393.415
-82.9976 293.573 156.64
-93.2435 306.901 88.6038
43.5575 179.617 298.602
-1.21004 232.676 234.4
80.574 306.278 83.8874
69.1704 293.63 157.727
124.387 270.746 157.882
-60.8644 305.009 -15.3584
-178.699 253.445 -31.2647
169.004 244.811 -26.3367
53.3595 305.089 -10.5327
-60.9293 241.277 -201.055
-4.14799 284.537 -131.563
51.5095 238.828 -199.543
-278.319 226.332 -83.8319
-295.725 209.714 -56.2196
-95.1095 152.952 -255.002
-176.995 201.611 -170.473
-359.258 124.296 -87.5236
-313.265 153.103 -145.638
-293.369 94.4639 -155.085
-321.075 156.859 -16.2104
-329.673 24.7665 -38.5718
-353.555 125.243 -60.443
-287.06 66.9065 74.6587
-294.366 -72.0644 190.038
142.72 211.766 189.486
185.412 214.634 95.3459
48.9817 64.8606 385.581
104.843 142.26 295.2
236.416 21.5612 245.343
196.226 61.9684 280.553
205.154 -10.1122 323.357
-63.1921 6.43631 430.278
-7.3915 28.3584 430.498
-224.906 -112.788 334.222
-171.473 -49.8019 381.097
-2.33034 -193.622 440.89
-79.048 -138.513 434.745
-94.4021 -253.408 436.397
-307.284 -143.509 150.769
-278.484 -140.862 247.324
-302.061 -104.677 -54.2473
-312.383 -116.681 34.5525
-241.81 -289.552 167.53
-292.311 -226.606 108.082
-245.455 -270.203 64.9436
-202.35 10.5783 -177.714
-256.436 -60.8298 -129.45
-4.33185 122.093 -276.491
-78.2204 117.513 -256.038
-171.3 -149.696 -140.197
-121.161 -35.3464 -199.542
10.0294 -11.9208 -165.803
167.873 193.027 -162.468
87.761 150.129 -252.151
273.405 205.295 -50.431
258.64 224.444 -83.7339
279.091 88.6532 -149.353
293.953 149.415 -138.699
337.451 112.304 -84.5917
224.836 -281.364 168.188
175.638 -306.943 280.217
129.473 -354.496 251.629
210.601 -102.65 328.678
204.607 -216.546 314.092
259.95 -139.436 238.826
46.0201 -347.339 404.632
127.733 -293.172 385.639
81.7453 -253.142 432.946
47.5991 -393.509 284.341
109.773 -343.857 164.672
-55.1992 -351.14 409.403
-4.81904 -411.486 347.308
-120.474 -344.258 171.668
-56.7425 -394.578 288.54
-139.901 -360.617 254.395
140.376 -297.147 54.885
162.59 -297.139 26.663
-178.471 -299.249 32.2396
-140.984 -293.264 55.1163
139.325 -216.495 -88.1123
1.26628 -206.365 -82.9487
-140.688 -214.261 -86.8853
200.197 -251.76 -34.8081
231.722 -262.961 59.285
149.172 -151.112 -141.647
163.476 -209.683 -107.868
290.702 -101.736 -51.375
230.319 -168.296 -90.3941
250.591 -60.1342 -122.943
272.14 -222.488 106.051
314.407 15.4943 -31.1952
301.99 -108.173 18.7269
280.681 -143.305 155.96
272.226 -72.1003 183.545
67.0046 -137.954 432.592
162.649 -51.1848 375.678
50.8524 4.82107 422.388
-192.246 -312.319 286.603
-142.207 -295.97 390.916
-223.201 -218.949 324.443
-178.179 -210.268 -110.176
-208.224 -256.154 -36.5656
-239.959 -170.166 -94.0875
199.219 16.9382 -166.626
98.6912 -50.5538 -209.356
70.0418 123.689 -255.582
270.049 53.1169 70.594
327.998 109.41 -60.7287
295.476 154.444 -16.7728
-194.353 247.18 105.526
-174.081 256.596 148.135
-156.185 279.428 132.755
-184.416 189.334 179.414
-184.873 231.214 161.796
-210.267 198.625 126.46
-126.288 267.527 183.694
-157.909 251.829 176.069
-138.81 235.99 204.262
-244.04 -30.3789 305.263
-241.24 7.34431 289.951
-262.975 -17.837 264.609
-188.701 48.1122 324.652
-215.373 30.5009 311.062
-192.133 13.5565 345.274
-244.628 59.157 219.592
-233.194 44.5592 270.136
-215.423 92.278 237.947
-28.1941 133.681 333.943
-54.5693 117.77 340.551
-35.6703 77.6548 391.822
-104.75 198.3 263.256
-83.9129 170.235 301.214
-78.1351 206.785 267.996
-100.762 49.0034 381.03
-91.6541 100.612 338.233
-135.523 77.6239 335.386
-178.765 143.067 233.165
-160.498 104.744 291.891
-139.217 184.497 246.512
-125.501 296.481 133.152
-134.664 294.436 96.0049
-99.9394 276.149 181.954
-111.612 289.801 160.82
-66.387 313.157 77.4832
-92.7983 304.239 127.37
-52.8892 301.766 119.312
17.7221 134.85 333.592
-4.1694 179.266 301.279
55.2045 235.68 225.269
25.9062 205.921 274.088
65.0218 205.21 264.08
-34.8992 205 275.152
-66.8959 235.086 230.219
115.797 288.929 88.5302
108.678 291.875 130.443
138.907 271.333 130.038
46.7495 302.764 120.054
77.5973 303.633 125.294
58.6045 313.251 77.8205
109.031 263.082 181.629
94.9373 286.372 160.44
83.478 275.18 181.474
-45.4164 268.959 185.033
40.8505 270.11 184.824
1.11523 288.853 155.451
-116.998 300.633 41.0673
-171.193 258.983 25.7537
-41.4012 312.342 33.9773
-78.277 315.271 39.488
-144.395 263.534 -71.1688
-99.6606 296.972 -15.7962
-82.808 294.631 -71.8255
163.875 248.861 18.2901
106.682 297.782 37.7826
74.6247 289.081 -68.1155
94.2478 293.702 -10.2337
145.882 251.278 -74.9421
70.2171 313.943 41.3137
35.9673 315.517 34.7853
-31.667 218.511 -231.479
-3.28948 243.115 -205.603
24.4964 217.797 -231.167
-55.931 279.248 -128.52
-31.941 265.044 -168.627
-87.0871 257.386 -165.061
77.4373 252.958 -162.006
23.7313 263.861 -168.217
46.4724 276.392 -128.241
-3.48527 305.505 -17.2496
22.8435 299.071 -78.4982
-32.6098 300.122 -79.0394
-251.159 230.852 -63.0691
-223.401 217.733 -8.54612
-207.322 221.66 -84.9201
-246.429 233.92 -64.2948
-321.905 195.747 -62.3447
-288.608 221.579 -69.5447
-316.232 208.991 -76.3635
-48.3609 172.294 -257.319
-78.3191 203.469 -232.56
-194.52 155.936 -187.203
-124.537 180.886 -224.348
-135.909 135.471 -240.951
-107.722 225.809 -197.599
-147.05 233.784 -154.967
-343.295 93.4674 -97.7925
-330.451 111.955 -126.316
-311.723 67.8656 -130.353
-340.705 168.822 -101.422
-344.2 135.655 -119.876
-366.577 143.601 -78.18
-271.088 108.517 -169.611
-306.356 125.335 -152.65
-280.932 135.316 -167.352
-244.035 209.159 -133.037
-266.398 179.392 -154.216
-296.899 199 -119.326
-242.526 192.071 23.2536
-336.738 168.261 -46.8841
-315.033 182.196 -33.2963
-255.737 169.354 33.3377
-265 139.909 47.4445
-328.799 29.8394 -67.7625
-353.783 100.115 -69.8938
-332.466 71.7289 -27.1139
-347.798 98.0237 -57.2117
-325.497 1.07342 5.72607
-360.699 127.651 -69.3458
-360.231 139.45 -64.3436
-276.164 -19.9502 225.637
-280.963 -61.3258 238.909
-265.326 80.6292 122.416
-268.939 25.7431 193.049
-305.783 -64.4443 127.63
-286.932 -14.9401 160.131
-306.434 14.153 51.8934
-342.964 138.341 -33.9836
-329.231 111.583 -15.5971
-314.39 123.014 1.91299
153.641 249.444 143.764
178.954 233.857 86.8526
119.525 230.214 201.726
138.197 246.438 171.938
194.021 177.844 111.294
161.471 226.444 157.035
164.434 170.085 183.348
21.0264 78.0443 387.634
43.107 119.997 337.115
127.476 75.5813 328.126
83.0838 100.953 331.673
93.6328 47.636 369.669
72.4674 167.12 297.463
91.7957 193.746 259.98
240.521 -14.1901 262.791
224.419 6.39209 285.114
225.486 -29.0253 302.964
205.068 80.7531 238.883
218.813 43.0555 264.796
227.36 55.1649 220.802
180.039 8.37167 339.128
202.082 27.682 304.008
177.042 44.7685 317.426
125.954 174.797 246.076
150.368 98.9657 288.188
164.579 128.347 238.226
-35.9789 48.3129 417.432
-7.71438 56.7581 411.631
-101.235 19.9276 399.767
-63.7341 34.4839 416.179
-7.31123 -0.604626 442.146
-37.4568 16.69 435.188
-36.8844 -11.9048 443.72
-251.729 -76.3869 305.743
-226.845 -50.6989 332.672
-163.711 -124.564 381.6
-200.957 -78.0731 360.218
-189.956 -164.721 356.578
-198.185 -27.0214 357.19
-165.118 -7.36907 373.413
-2.46574 -254.046 440.924
-56.7951 -235.653 441.644
-50.8567 -275.637 440.461
-37.8136 -81.7404 437.849
-50.0272 -164.317 439.961
-0.998627 -107.892 446.069
-119.184 -242.328 420.885
-87.8123 -219.858 432.851
-108.418 -194.235 415.197
-113.614 -22.0941 403.765
-115.85 -89.6255 409.465
-69.9272 -45.8651 433.61
-292.317 -102.612 216.993
-275.431 -95.6008 263.027
-310.766 -100.945 116.782
-306.777 -106.852 172.453
-272.945 -185.821 232.623
-298.861 -138.653 198.055
-291.466 -183.272 172.786
-310.216 -48.5047 -75.4216
-321.561 -54.9026 -41.6536
-294.115 -161.938 18.0528
-313.649 -108.537 -19.5827
-284.38 -151.869 -32.6446
-324.386 -66.4028 -3.88241
-322.874 -81.0315 47.0654
-220.736 -308.952 146.111
-250.097 -282.785 114.829
-222.603 -299.304 95.9195
-286.001 -230.001 147.565
-272.34 -258.086 132.132
-256.677 -261.789 188.51
-261.457 -239.636 30.3332
-272.632 -251.306 88.3534
-284.918 -220.552 61.54
-310.867 -144.543 94.787
-304.546 -184.361 83.5236
-308.374 -191.57 123.797
-276.194 28.4842 -142.018
-288.117 -15.4258 -115.336
-210.092 84.414 -178.813
-257.981 60.9656 -165.714
-215.785 -98.6891 -145.039
-235.242 -23.9024 -155.121
-187.802 -65.9358 -173.219
-3.37578 141.851 -278.198
-45.255 132.158 -274.39
-34.035 89.2593 -255.827
-37.8796 118.942 -268.734
-5.18676 107.668 -266.529
-90.3792 127.646 -260.435
-130.335 125.992 -238.385
-121.613 -164.287 -124.004
-124.802 -106.034 -150.148
3.34103 -127.717 -116.136
-161.392 -84.042 -174.266
-164.486 -92.4266 -167.714
-176.148 -139.879 -149.063
5.26804 57.9519 -232.235
-102.167 -22.9596 -215.518
-49.1631 34.1609 -225.713
-131.119 73.5689 -208.572
-80.4497 36.0045 -223.228
[...]
POINT_DATA 642
SCALARS Mean_Curvature double 1
LOOKUP_TABLE default
0.0100753
0.00951728
0.011963
0.0072885
0.00929183
0.00398428
-0.0635173
0.00923334
0.00229585
0.00829528
0.0043766
0.00842021
-0.00234045
0.00414103
-0.000283335
0.00506011
-0.00448762
0.00392837
0.00263459
-0.00914385
0.0356112
0.011438
0.0050347
0.000412274
0.00176444
0.0100792
0.00646896
0.00491377
0.0249308
0.0271059
0.0395723
0.00262519
0.00403641
0.00141519
0.0145112
0.0101082
-0.00497585
-0.0250275
-0.0103306
0.00716496
0.00802858
0.0135687
0.0169383
0.00981509
0.0148286
0.00907787
0.00708567
0.00574821
0.00949054
0.00637777
0.00775952
0.0119411
0.0031185
0.0105435
-5.85759e-05
0.005143
0.0165903
0.0144988
0.00309109
-0.00220741
-0.00344731
0.00423479
0.0088618
0.00822202
0.00899915
0.0180546
0.00413004
0.0123212
0.00320751
0.0193245
0.0184794
0.00808171
0.0128545
0.000943817
-0.00588794
-0.00181169
0.000897051
0.00407699
0.00160826
0.00459571
0.00601271
0.00840733
0.007612
0.00858638
0.0123437
0.0113291
0.00488128
0.00790745
0.000748723
0.011587
0.0181211
0.00520295
0.00587758
0.00878106
0.000824256
0.00887371
0.0112406
0.00463453
0.00101614
0.00496208
0.0401357
-0.00320349
-0.0121014
-0.0617599
-0.0107712
0.000207749
0.0143156
0.00537446
0.0212593
0.00836122
0.0153569
0.0374977
0.00697518
0.00531316
0.003953
0.00684959
0.00978129
0.00740267
0.00797748
0.0119182
0.0210319
0.00845343
-0.016552
0.0114112
0.0240428
0.0120402
0.00225201
0.00466862
-0.00531336
0.0638545
0.0897778
-0.00294905
-0.00245395
-0.0246422
-0.0026197
0.0068222
0.00600591
-0.0144992
0.0585792
0.00979227
0.00920894
0.00911651
0.0131465
0.0057775
0.0126363
0.00307308
0.00237002
0.00984402
0.0104644
0.0095595
0.00702354
0.0104967
0.0121844
-0.0375615
0.00748205
0.00812247
-0.00221689
-0.00395886
-0.00397326
-0.00339144
-0.00527841
0.0104566
0.00781527
0.0133904
0.0143195
-0.00168493
0.0151598
-0.000995551
0.0145337
0.0132291
0.00928547
0.00669095
0.00733348
0.00744992
0.0072549
0.00864955
0.00859199
0.00294058
0.00703103
0.00392113
0.00198591
-0.000141918
0.0115237
0.00834064
0.0104801
0.0110548
0.00272958
-0.00245696
0.00288914
0.000212863
0.000282886
0.00341255
0.0167073
0.00733037
0.0109048
0.0185266
0.0116113
0.0167748
0.000952562
0.0047372
0.00411693
0.00148008
0.00770402
0.00943295
0.00494417
0.00259102
0.00283805
0.0152173
0.0129512
0.00288494
0.0190433
0.0141281
0.0132063
0.0165508
0.014936
-0.000753654
0.000906166
0.00533904
0.00787673
0.00173072
0.0036469
0.0161869
0.00581451
0.00369033
0.00932816
0.000381656
0.010164
0.00574385
0.0041439
0.00101695
0.0152872
0.00941189
0.00955627
0.00799024
0.0110808
0.00407108
0.00590724
0.00920524
0.00762194
0.00662394
0.00393958
-0.000542365
0.00737049
0.00680546
0.00332207
-0.00837413
-0.016679
0.0423157
0.00869801
0.0385439
0.0336502
0.00543146
0.00952999
0.00533565
0.00593531
0.0293936
0.00819656
0.00777135
0.00895782
0.00632848
0.0106623
0.0134846
0.028816
0.0504471
0.0110342
0.0158574
0.0145777
0.0121251
0.0107164
0.0132551
0.000352881
0.00817531
0.00980913
0.000107588
-0.00470129
0.00740768
0.0299062
-0.00386262
0.0148088
0.0050696
0.0460178
0.027145
0.00482304
0.00528566
0.00334741
0.00421407
0.00167206
-6.0226e-05
-0.00310148
0.0238089
0.00625594
0.00556105
0.0128762
0.0114262
0.0078161
0.0139662
-0.00304908
0.0116394
-0.0032784
0.00980586
0.00064433
0.0036111
-0.00192353
0.00214206
0.00854164
0.00667164
0.00620739
0.00780717
0.00944772
0.005342
0.0095847
0.00473975
0.00758232
0.0085341
0.00690384
0.00419712
0.00153999
0.00115706
0.014843
0.00922341
0.00648024
0.01085
0.0134428
0.0162965
0.0153804
0.00925062
0.00617111
0.0020933
0.00682263
-0.00250078
0.00926794
0.00672209
0.000507442
0.00655574
0.00765514
-0.00269335
0.00283434
0.00956487
0.00816093
0.00854539
-0.00420518
0.000905051
3.21444e-05
0.009132
0.00540219
0.00764796
0.00191743
0.0112653
0.00321025
0.00944985
-0.00073085
0.00883555
0.00938204
0.000380123
0.0119475
0.00150885
0.00673268
0.00982635
0.00738996
0.0103894
0.00610717
0.00788582
0.0104788
0.00481018
0.00622504
0.00896959
0.006458
0.00369094
0.00765378
0.0170933
0.0016229
0.00431106
0.000590219
0.00834686
0.00202986
0.00345202
0.0074192
0.0197164
0.031927
0.0052758
0.00316265
0.0014012
0.0486452
0.00395276
0.00256266
-0.00289539
-0.00745052
0.055269
-0.029091
0.0500741
-0.00557209
0.0272422
-0.014635
-0.00632032
0.00520519
0.0122672
0.00827182
0.00614954
0.00634632
0.007401
0.0531731
0.00581742
-0.00363839
-0.00561115
0.0103572
0.0365603
0.0245524
0.00331649
0.0245
-0.00552665
0.00941906
0.0168205
0.00829927
0.0169527
0.0176288
0.0115938
0.0495573
0.014377
0.0181982
0.0161804
0.011216
0.0116907
0.00581579
0.00933871
0.0051012
0.00378255
0.00901642
0.00593064
0.0115831
0.00699874
0.0102154
0.0058827
0.0058817
0.00247789
0.00764387
0.000851897
-0.000636187
0.00398027
0.00413021
0.00442892
0.0127691
0.01273
0.0110685
0.00934292
0.010042
0.0065436
0.00674979
0.0174678
0.00855435
0.00599342
0.00594616
0.00491717
0.0147503
0.0201352
0.024281
0.0065369
0.00333236
0.0146657
0.00217261
0.0164353
0.0129548
0.0132415
0.011579
0.00688139
0.0129157
0.00851707
0.0249292
0.0163503
0.00452444
-0.00218692
0.0119556
-0.00134089
0.0129858
0.0125739
0.0256566
0.0274505
0.0304003
-0.00668648
-0.058058
0.00810166
-0.00363777
0.0614718
0.0698237
-0.0369932
-0.00983879
0.0237702
0.0538476
-0.00446562
-0.0588772
0.0343047
-0.0185445
-0.00169783
0.00415741
-0.021992
0.00726583
0.0042616
0.00574284
-0.0168065
-0.0062977
0.00414251
0.00631919
-0.00889638
0.00498509
0.00444422
0.00428915
0.00584011
0.0495845
0.0157655
0.00535437
0.00749288
0.00997982
0.00368722
0.00248516
0.0237061
0.0196692
0.0622933
-0.0342721
0.102042
0.0097337
0.00763607
0.0074762
0.00703328
0.00429802
0.00466567
-0.00045413
0.00380616
0.00934447
0.0161574
0.00839577
0.007843
0.00916436
0.00514741
0.0102381
0.0110482
0.00837454
0.00384397
0.00905148
0.0097102
0.00726155
0.0120384
0.0132271
-0.00472374
0.00552871
0.00240513
0.00245016
0.0145715
0.00130598
0.00794327
-0.000739502
0.00992954
-0.0040063
0.0108928
0.00986304
-0.00377419
0.00298856
0.00439348
0.00519094
0.00962402
0.00671704
0.0100832
0.00693854
0.00371028
0.0136488
0.0149756
0.0160946
0.00788333
0.00129465
0.0032098
0.00507949
-0.00101718
0.00543137
0.00931138
0.00761507
0.00700671
0.00458147
0.0108517
0.0119323
0.0188407
0.00876684
0.00876376
0.00450292
0.00395946
0.00383887
0.00289902
0.0110086
0.00751642
0.00524781
0.00579684
0.00272516
0.0201785
0.0656183
-0.0226612
0.059759
0.00492831
0.00893502
0.00476243
0.0243914
0.0653083
0.00668386
0.00653008
0.00423368
0.00480276
0.00739006
0.0286263
0.006419
0.0110255
0.00250173
0.00404056
0.00161795
0.0065975
0.00940341
-0.00456747
0.0166455
0.0345185
-0.0382901
0.0348771
0.0341237
-0.0168264
0.0744574
-0.00155638
0.00333625
0.00606063
-0.00201195
-0.00608265
0.00435987
0.00229039
-0.000753283
0.00244412
0.00220085
0.0274746
0.00444741
0.0496928
0.0212247
-0.00839706
0.00466215
-0.00448017
0.00210365
0.0114072
0.00806393
0.00538254
0.0132993
0.0053178
SCALARS CoVolArea double 1
LOOKUP_TABLE default
2480.12
2466.25
1744.81
1847.03
1544.65
1668.61
2652.52
1871.18
2167.76
1452.39
2232.65
1354.07
6165.25
2373.57
1806.38
1717.16
3107.88
3400.75
3680.73
2480.31
996.931
3296.03
2364.04
5829.38
2837.16
1850.23
2565.82
2926.07
1525.64
1542.25
772.918
1551.31
2648.87
2996.04
2125.28
2337.67
4886.9
647.631
414.926
1998.43
2452.58
2429.33
2259.47
2138.66
1014.62
1548.88
2610.75
1957.72
2020.56
3055.47
1949.2
1890.4
1615.04
1934.37
3605.91
1474.97
1555.42
993.054
2695.74
3660.61
3569.55
2740.06
2227.8
2592.43
2166.61
1854.29
2159.97
1970.12
3644.3
859.345
1873.54
1683.78
1895.71
2493.23
848.764
5063.67
2577.69
2294.18
2494.25
2199.03
2887.51
1645.52
2222.48
1375.28
1660.28
1008.74
2747.71
2953.21
3553.64
3335.83
1402.32
2255.69
2436.1
2133.55
2742.14
2257.88
1639.82
2107.94
4752.6
2904.4
684.381
2527.77
1552.72
1443.28
12579.5
4223.43
1876.64
1530.95
1463.08
1449.54
1842.76
812.197
2070.85
2594.33
2269.5
2568.35
2405.3
2070.75
2329.45
2122.73
1245.49
1497.14
1350.33
2254.55
1805.85
1370.18
1503.14
2366.88
5709.78
1104.09
882.507
6529.33
2868.28
8402.88
3202.29
1703.54
1967.51
903.432
777.068
1857.61
2016.07
2602.95
1593.37
2167.94
2137.45
2685.92
2853.77
3385.74
2277.32
2030.01
2617.32
2332.91
2405.04
525.801
1820.61
2187.54
5022.68
1820.58
2907.28
5377.97
1109.57
1723.83
2759.17
1287.59
1412.85
3262.72
1472.13
3776.75
1111.47
1099.21
1842.25
1593.92
1624.07
1692.6
2301.27
1514.64
1573.99
3755.89
1891.68
3519.86
2482.96
2344.34
1627.53
2133.6
2074.51
1754.48
2379.13
2928.92
3198.56
3783.58
3828.95
3411.61
1255.57
2423.97
1669.96
935.597
1914.46
1287.65
3004.24
2403.25
2362.01
2380.14
2279.71
1728.06
2405.22
2780.79
2597.95
1337.91
1651.74
2735.82
1185.13
1636.27
1068.04
935.851
1398.99
3399.31
2957.69
3066.18
3340.44
3883.23
2722.15
1906.44
3858.65
3431.69
3177.26
3519.31
2942.81
3611.11
3509.86
3959.21
1693.04
2573.59
2172.17
2240.58
2109.35
2716.32
2345.81
2505.84
2594.03
2297.07
2880.54
3428.67
3262.09
3165.64
2032.69
3982.71
3971.41
1686.9
739.889
554.006
1311.76
2243.15
2344.81
3956.4
3175.77
2107.96
2738.64
3838.54
1840.25
1396.13
2256.42
1929.01
1290.03
849.336
1686.2
1106.42
2295.26
3470.74
3050.97
2384.53
3563.52
947.093
1957.86
2941.18
5266.14
2489.58
1231.45
2598.3
1193.32
2657.68
341.919
598.578
2505.8
1868.07
5679.18
3834.94
3673
5032.78
5491.97
1012.09
2838.12
2907.05
1347.99
2236.35
1828.24
1072.42
4943.94
2161.89
4119.71
1693.22
2404.33
2988.27
2976.93
2604.52
2107.8
2157.89
1633.9
1394.13
1391.41
3170.86
1468.03
2861.24
1475.13
1414.91
2124.39
3247.44
3349.56
3520.41
1079.65
1147.35
2112.1
1285.75
1045.94
964.934
1598.06
1990.73
1913.5
4280.03
2632.68
3094.39
1695.66
2183.78
2346.58
2384.37
1853.71
2807.37
3187
3019.02
1372.95
1887.07
3561.2
3066.53
4522.5
3075.57
1855.04
1987.06
2766.9
1952.71
2732.61
2166.12
2649.29
2699.31
2390.6
3107.35
2317.61
2416.38
2743.95
2900.5
2182.85
1783.34
1904.58
2180.69
1756.67
2407
2043
1730.17
2376.42
2644.09
2513.32
2090.54
2704.24
2840.71
3678.16
2863.14
2650.45
3338.42
2850.83
1729.63
1281.5
1977.79
827.888
964.036
862.196
2170.48
3718.22
8044.59
10051
1113.7
1515.66
391.345
4135.71
5525.94
1806.73
5436.02
3650.8
3842.9
2323.29
2176.47
3401.25
3026.36
1648.76
3245.28
3661.68
2912.25
1844.25
1176.06
657.802
726.464
1825.91
2685.93
1900.84
1196.14
1608.65
2047.4
1195.87
1328.43
747.168
1357.66
1685.18
2967.65
2197.04
3186.84
2094.03
2377.49
2465.84
2806.94
2342.26
2129.44
1545.63
2088.37
2117.33
1818.62
2508.04
1979.28
2528.09
2774.22
3267.81
2360.03
2415.98
2711.23
1971.67
2024.31
1770.72
2381.03
2205.63
2417.4
1464.8
1474.99
1776.38
3026.27
2583.71
2793.49
2294.09
1946.54
1555.97
1713.99
2529.45
1804.15
2811.07
1895.13
2084.95
2126.62
2190.57
2427.6
2224.35
2160.04
1851.64
2214.95
2729.76
2901.39
1788.6
2895.08
1751.87
1639.49
1622.76
1379.47
1329.66
1805.83
867.58
1924.08
9248.63
1851.48
472.537
619.77
1505.57
1568.68
754.59
2021.99
1163.32
487.592
2527.55
9713.27
3657.81
6713.8
3729.08
2997.12
4128.48
908.178
1270.47
4250
3278.38
12404.6
8833.59
8667.02
2129.53
2087.5
847.9
1418.19
1886.34
1886.6
1860.03
3255.58
1166.31
1268.64
520.619
691.864
547.861
402.339
2475.78
2242.33
2496.73
2088.96
2064.05
2169.96
2663.06
2242.75
2054.21
1517.56
1838.75
2070.3
1814.34
2327.17
1662.03
1625.32
1935.41
2451.46
2172.23
2545.8
1974.71
1952.25
1737.06
2707.17
1703.04
2086.87
2254.39
1704.78
3147.74
2027.27
3150.93
2484.96
3385.74
2314.68
2125.84
3573.79
1858.33
2746.27
2418.24
1525.21
1957.63
1351.76
2208.39
3716.37
1161.73
1650.44
1027.08
1530.77
2329.76
4183.56
3069.26
3465.95
2673.98
2350.99
2230.76
2527.06
2912.73
2079.82
1812
1672.96
2347.8
2586.09
2652.67
2845.66
2474.5
2496.59
2295.6
2892.67
2701.22
3083.16
1639.1
394.866
870.405
549.522
936.306
2110.93
2112.86
2191.23
1428.18
733.089
2588.93
2074.14
2400.98
2223.45
2297.73
1367.73
2260.34
1784.02
2411.19
3337.69
3234.09
2552.84
3070.31
6275.65
1663.53
3663.45
765.441
1701.21
1187.56
1810.35
649.936
753.519
2250.35
5017.83
4798.74
6257.05
2666.13
4383.81
4858.81
3838.43
5232.09
1060.39
616.936
334.05
985.25
2170.19
2403.89
4920.7
2839.52
1526.52
926.283
3035.1
1290.57
3207.64
SCALARS SignedDistance double 1
LOOKUP_TABLE default
74.3242
86.5001
77.4242
72.9472
66.7371
83.1678
194.62
57.9726
71.4182
79.7196
69.7764
75.1219
84.0661
78.4772
83.9226
83.9217
74.3899
70.5596
67.5035
88.3916
71.5044
79.7856
79.1926
85.0574
73.2342
72.8148
72.0867
69.9324
101.644
95.2374
75.6033
97.4365
74.3366
75.7894
59.0166
57.0516
125.059
92.8198
91.9433
82.1505
75.2095
81.0879
88.6439
86.3892
69.8115
73.9735
78.3144
79.1652
78.3591
80.0114
77.8308
75.4997
72.8761
77.1688
81.9276
72.529
75.1803
73.0823
73.2819
80.4812
86.7553
73.0755
59.4362
65.4355
59.8948
75.4373
73.8799
63.5442
70.7864
73.4763
55.6834
66.2992
83.9588
79.8151
78.868
88.1065
79.5265
89.5524
93.5283
80.564
80.8416
81.7525
79.7457
76.8689
72.0553
73.5308
72.185
72.4604
69.7657
69.9279
70.3625
76.4739
73.587
68.8551
79.6807
65.8405
68.7602
70.8736
79.2101
72.3417
81.77
80.8345
93.8727
111.635
160.428
77.7477
65.7656
77.1728
74.7326
69.4764
57.4947
78.4225
70.5012
68.4406
69.4915
74.7733
73.9915
78.358
55.0126
66.9698
73.3004
84.0014
97.8113
52.0699
69.237
99.4494
87.3996
71.2445
94.1498
95.8444
97.1321
105.788
95.3641
194.282
106.06
72.2976
71.6331
91.197
92.0035
70.5579
70.7305
72.7439
73.2286
85.7126
77.3019
81.9671
82.7252
71.3284
74.4119
75.8484
64.4834
61.1467
68.2609
95.1121
74.0045
69.0382
78.6626
127.912
76.7329
96.6978
80.8058
86.1045
79.6585
72.1742
67.5576
88.4494
79.9506
90.5922
73.9606
74.8603
82.2223
75.3011
76.7973
76.9291
76.5824
75.9226
74.8896
81.033
78.1771
81.7954
89.836
90.1593
79.7024
76.3076
76.3761
75.854
79.2293
85.595
82.7615
82.9838
83.8391
79.7374
66.9992
68.2994
76.9252
72.5824
76.2735
72.4597
73.975
89.8287
78.4679
84.4848
77.3596
77.8216
77.2465
83.5369
71.9895
68.4303
72.3777
74.4342
71.8171
75.0865
75.727
71.5026
75.8332
79.5379
82.2444
75.5793
68.6144
78.3086
78.2143
70.3093
70.8012
68.4829
66.0196
87.9579
71.3162
66.9884
70.7641
78.8546
68.383
77.9538
57.0012
59.5217
56.5696
64.4035
62.4201
61.5395
63.1143
63.6319
65.0648
73.84
67.1307
68.2233
90.6808
81.6868
81.8295
94.2051
70.6693
76.3157
71.0571
61.0882
56.9903
76.5347
59.7779
77.6121
59.1673
64.5434
65.3955
62.5978
66.8524
51.4337
63.6317
77.693
74.4065
66.1301
72.0636
83.7324
71.2475
58.5244
87.5981
73.5248
77.2575
89.247
90.0578
73.247
77.691
80.8288
78.1183
84.5157
80.5697
79.7663
79.6587
78.9724
80.7954
80.5001
81.4164
83.3711
86.6545
84.7168
85.9752
88.9964
77.3209
92.7268
85.0816
78.9506
88.8011
85.8473
88.7853
80.9851
90.2113
82.6982
86.1975
81.3817
77.8711
78.7498
80.5173
79.2168
78.0468
83.7095
79.7519
84.2214
77.4161
78.1298
78.9961
81.9995
84.9362
86.122
75.1236
76.6529
77.8424
74.3305
71.4263
71.6603
70.4032
73.7767
74.109
74.7778
72.3308
75.4543
72.9648
75.8442
67.5864
68.3155
67.0638
77.3909
70.1873
77.3339
72.6237
73.4221
73.9943
78.1629
79.3417
75.4986
77.0021
74.9929
78.242
79.3739
73.0008
72.313
77.3463
67.2816
72.4765
76.9481
72.5602
76.4795
75.5057
80.0216
67.7452
68.7529
71.3391
69.7687
68.0247
68.9346
69.5934
68.8003
70.4824
78.3295
76.2287
78.8287
71.7259
70.6773
85.979
75.6624
73.3477
72.7313
77.7186
72.6374
80.4613
91.9071
81.1498
83.1812
79.2717
78.0299
119.121
109.614
180.754
94.824
93.0642
96.1211
106.032
134.145
129.11
96.9619
128.253
98.3015
58.6928
61.5432
75.141
60.8395
84.3981
63.5427
90.6659
88.3456
86.1166
74.2092
76.8087
73.301
86.7022
89.292
69.1293
67.2278
71.3933
70.2745
65.2724
73.935
80.7619
61.5882
59.423
80.2631
56.0817
65.1426
70.2134
69.2011
72.1732
72.8245
68.3198
72.115
71.0817
66.6772
68.8923
77.2556
76.8963
81.2891
73.1844
77.7514
78.2044
75.2488
75.75
73.9083
60.6691
58.4785
66.9845
61.5106
57.4415
56.0571
75.2758
69.846
74.7303
70.2754
69.7929
68.2861
86.2001
91.9912
74.8225
76.4859
98.4946
90.8368
95.6191
60.2348
51.6855
68.7452
50.7772
54.3283
52.2255
64.9517
94.0723
89.5626
73.5335
100.294
94.9062
104.694
67.9432
81.2916
80.3536
84.5217
87.6199
86.2064
95.1123
82.8947
108.602
101.083
95.1986
93.3589
94.3113
92.04
94.6234
97.3084
95.3428
96.0953
93.7729
121.73
124.797
185.495
148.927
94.4262
114.599
91.4183
93.9694
128.674
103.383
184.848
141.866
126.316
74.5455
72.9881
92.8099
84.1568
72.8937
71.5155
70.2903
101.148
94.8271
87.8146
91.3478
93.2094
90.6007
93.2482
69.6484
71.8535
72.319
72.8987
74.4748
77.439
76.2082
78.9414
71.9912
84.0397
74.644
71.1662
70.9535
75.4237
71.2283
70.1888
73.074
77.4356
74.5959
76.9652
77.4846
83.4296
74.4413
82.2627
81.8767
81.9462
80.8969
77.8472
85.9494
81.9836
84.5776
81.1331
83.5256
81.1378
72.6301
74.8234
75.4762
71.329
81.5254
75.792
76.983
75.5009
74.5134
75.8536
76.0506
72.3633
73.359
77.1547
80.1607
78.9736
79.5788
80.026
68.2352
63.481
65.0353
67.8553
69.7427
57.7718
72.5456
67.2038
55.1841
57.3757
71.656
72.1657
74.1719
77.7596
70.6228
63.4714
68.0371
66.4824
103.489
94.3454
98.7787
93.4479
95.7646
77.2502
68.6764
71.2874
90.9576
95.0807
70.3817
73.0701
72.5281
72.1718
70.4056
91.2046
70.5756
79.3256
72.3432
74.9468
77.9703
72.6397
89.6923
97.4131
143.84
139.22
93.6664
96.056
81.0748
81.6842
77.7196
80.7415
90.9155
94.3067
128.222
90.7386
84.2197
87.3377
85.7984
85.0197
85.7011
80.583
79.5331
81.7751
79.7264
87.27
92.4652
91.2874
91.3405
81.4039
77.1153
86.6761
85.5241
89.5591
