# vtk DataFile Version 4.2
vtk output
ASCII
DATASET POLYDATA
POINTS 642 double
-227.193 337.895 91.493
219.337 328.177 84.3824
-234.046 -399.267 113.594
224.13 -393.532 116.513
-3.06303 -313.533 515.641
-3.82238 155.379 453.468
0.634712 -245.337 -188.256
-1.61105 224.99 -316.055
374.334 7.20073 -137.295
330.772 -45.0659 317.883
-388.326 8.51639 -141.14
-347.509 -46.3442 321.535
-305.074 175.972 200.949
-199.499 74.2582 433.317
-130.75 309.364 279.164
121.757 306.373 277.284
-0.508767 396.076 84.1897
139.046 329.577 -146.013
-141.631 334.963 -148.761
-242.312 121.349 -269.798
-409.19 216.875 -66.8985
-414.224 -31.3462 71.7899
194.409 70.89 426.37
296.426 162.262 199.53
-205.373 -212.083 464.426
-1.76395 -40.0526 533.461
-344.081 -247.439 -30.636
-342.992 -261.966 236.719
-3.85203 21.5921 -339.708
-217.055 -155.834 -233.54
392.278 209.905 -63.4244
236.945 122.016 -270.214
329.442 -257.466 232.366
194.075 -210.384 457.685
133.847 -431.136 352.93
-138.589 -434.81 356.705
-2.67567 -450.985 165.486
-152.463 -353.678 -99.5012
145.511 -353.361 -99.3977
213.233 -156.438 -227.605
334.396 -242.22 -31.9646
403.7 -29.5865 67.9094
-283.656 273.11 143.7
-230.008 268.655 247.079
-182.566 345.579 195.713
-285.948 19.3317 388.679
-272.87 118.579 337.347
-340.648 55.2255 280.942
-67.3725 244.279 372.2
-160.464 200.791 367.657
-94.3873 122.206 463.629
-84.5694 376.604 194.238
-116.961 390.706 92.8673
60.692 243.135 369.936
-0.617285 312.391 292.437
110.74 389.002 89.8088
76.4858 375.557 194.6
171.992 339.329 193.608
-72.3364 390.39 -30.2567
-209.407 336.389 -38.0648
203.666 332.154 -34.3067
68.248 388.51 -27.625
-74.5697 296.966 -247.085
-2.35753 357.509 -163.02
69.1962 294.966 -245.577
-304.139 291.567 -110.569
-339.995 279.451 -24.1002
-118.532 180.666 -317.462
-206.841 246.412 -225.501
-429.054 115.86 -118.156
-353.104 179.67 -191.095
-340.967 79.6812 -219.035
-389.652 201.51 35.3036
-420.171 6.77142 -45.774
-442.081 117.637 -23.4024
-379.987 86.0616 112.836
-387.957 -55.5335 212.727
215.154 261.294 244.616
271.561 264.997 131.093
86.6633 120.504 457.923
153.667 196.619 363.615
326.332 55.2326 277.685
263.999 114.692 332.249
275.528 16.3672 383.578
-97.9713 28.6302 509.959
-3.76477 67.0176 512.699
-289.909 -119.295 395.708
-219.227 -42.6775 457.634
-1.58397 -195.543 526.288
-108.388 -137.058 515.47
-120.427 -263.249 512.663
-397.336 -155.989 165.534
-359.529 -155.678 284.617
-374.863 -134.702 -90.6517
-400.708 -141.852 24.9382
-302.081 -346.212 177.128
-367.62 -267.87 103.655
-302.451 -333.179 42.0875
-240.25 -2.10938 -260.209
-311.473 -83.9254 -195.19
-1.97106 111.819 -363.629
-108.097 84.7813 -337.806
-141.592 -200.008 -236.399
-123.017 -71.2021 -292.233
3.35716 -76.7074 -262.619
199.813 238.1 -220.434
113.835 178.33 -314.395
325.673 274.708 -19.2945
291.826 287.281 -107.776
331.579 73.5873 -214.602
339.879 175.975 -184.397
409.253 108.77 -111.883
290.653 -339.346 176.854
240.261 -356.046 305.743
175.45 -426.06 250.606
280.58 -111.768 389.165
277.88 -237.694 361.798
345.388 -152.64 278.182
67.775 -390.025 453.197
179.82 -326.156 433.574
113.951 -261.632 508.591
63.5522 -479.327 262.58
114.748 -441.497 134.027
-73.139 -392.652 456.476
-2.25899 -466.959 373.471
-120.124 -443.208 136.114
-67.9242 -482.63 262.649
-183.435 -432.238 251.473
110.125 -397.153 14.4167
185.718 -383.006 -1.84772
-190.539 -389.799 -0.310456
-115.771 -396.033 15.4459
113.253 -293.475 -163.31
0.556367 -312.759 -90.4821
-117.911 -292.261 -163.221
249.594 -315.514 -74.5879
292.38 -326.439 39.4159
130.6 -200.642 -236.536
181.833 -270.253 -179.285
366.079 -132.421 -87.7097
290.486 -206.884 -144.587
305.52 -83.5068 -190.214
352.767 -262.423 102.719
406.077 1.53204 -40.4254
391.703 -136.556 16.6782
378.602 -154.429 167.514
370.307 -56.2925 207.114
100.905 -136.596 513.238
213.608 -43.0801 452.632
90.2527 27.2414 503.803
-252.294 -361.155 309.912
-188.384 -329.683 437.979
-291.109 -239.952 369.131
-185.241 -273.813 -184.244
-255.433 -318.808 -75.8859
-297.399 -208.848 -148.017
237.254 0.847666 -251.463
113.999 -75.8829 -290.953
102.052 88.3712 -335.04
364.9 77.6073 110.765
419.562 110.823 -22.9552
370.928 197.719 35.1247
-259.287 308.946 117.166
-233.41 316.354 176.96
-203.748 348.676 149.067
-268.166 231.152 227.95
-255.863 276.827 203.657
-297.916 235.993 165.437
-158.323 333.665 237.513
-209.801 310.034 224.051
-182.88 294.566 265.134
-319.499 -12.8208 357.547
-318.263 38.2075 337.224
-347.455 5.42178 303.055
-243.136 96.6897 387.327
-281.988 70.2358 366.424
-247.568 47.9395 412.774
-328.201 105.063 251.027
-309.487 88.8052 312.063
-292.004 143.812 278.235
-34.4818 199.356 411.026
-79.3138 181.644 417.687
-49.9604 140.735 463.492
-143.744 259.291 325.959
-114.113 227.572 372.09
-98.219 276.607 329.683
-144.329 99.4443 452.134
-129.664 158.918 413.794
-181.199 132.071 405.314
-246.775 194.726 288.145
-218.009 160.532 353.709
-195.198 236.878 307.626
-155.688 373.845 149.307
-171.935 370.682 96.2087
-111.424 350.438 236.677
-132.898 366.583 197.552
-69.7767 402.461 86.9845
-102.902 389.126 146.032
-48.8152 389.832 140.618
27.9352 199.523 410.27
-2.7318 244.657 374.089
67.0216 313.1 287.543
33.3371 279.792 336.331
90.7355 274.774 326.709
-38.4363 279.431 337.271
-74.1193 312.84 290.018
160.591 365.601 91.8615
146.109 368.76 146.63
192.739 341.222 146.858
44.5583 391.749 141.035
94.214 386.814 143.779
65.6172 401.258 87.2632
148.482 328.84 235.183
124.19 362.358 196.511
101.694 347.918 235.86
-44.3864 349.144 240.008
41.2886 351.14 241.439
0.00294246 373.561 193.564
-152.44 377.177 33.8287
-220.022 336.937 22.7024
-42.2034 402.585 29.1027
-95.0945 397.062 32.7849
-176.865 338.753 -93.4264
-128.471 374.705 -31.1138
-105.078 369.569 -92.3912
214.871 331.794 18.4781
146.708 374.212 32.3036
100.09 365.189 -90.2605
126.269 371.6 -27.4673
175.235 331.429 -92.37
91.7695 395.218 34.6825
38.8289 403.295 29.9842
-38.272 264.77 -286.005
-1.80141 300.515 -252.169
34.2882 264.078 -285.438
-70.303 351.49 -159.328
-38.2036 331.238 -207.445
-108.222 320.885 -201.358
102.07 317.383 -198.97
33.6912 330.392 -207.107
64.8807 348.902 -158.676
-2.79001 393.536 -31.8815
32.5213 377.642 -99.2764
-38.2697 379.289 -99.5535
-288.991 312.657 -37.754
-282.148 294.321 17.7225
-231.021 302.71 -124.357
-271.635 318.969 -77.6522
-377.216 255.331 -42.5172
-328.865 295.554 -61.6028
-361.229 261.781 -89.6725
-60.423 205.95 -321.155
-97.6563 244.549 -288.488
-227.686 183.908 -252.203
-156.834 217.411 -280.404
-174.382 150.007 -305.273
-134.755 275.92 -244.802
-177.453 294.989 -192.361
-411.184 72.2847 -133.648
-390.214 99.2214 -175.255
-370.978 47.3227 -183.606
-386.894 201.646 -131.046
-398.22 146.656 -159.951
-427.38 162.317 -93.2861
-305.424 103.829 -245.659
-355.497 127.66 -213.861
-313.357 152.261 -234.874
-267.592 271.697 -174.276
-294.786 218.227 -209.401
-332.228 243.099 -156.299
-311.339 264.589 51.5752
-403.716 213.656 -15.3698
-371.461 241.861 6.10285
-334.674 227.228 77.5844
-346.656 188.722 97.6488
-410.076 7.87914 -92.8287
-434.752 75.7329 -80.7903
-425.212 69.9135 6.81978
-437.963 79.5206 -36.5838
-418.661 -5.2827 11.1928
-449.886 119.511 -63.7453
-439.04 159.031 -43.3363
-367.555 3.61639 251.92
-370.999 -49.3263 269.968
-351.172 121.128 157.201
-359.37 59.4139 218.647
-401.028 -50.7246 145.986
-382.629 7.52673 181.894
-399.91 31.1861 85.4286
-424.209 158.644 8.5865
-421.203 115.001 30.0961
-398.676 151.854 59.7976
220.364 308.751 173.463
251.21 298.802 107.393
171.625 288.99 262.218
197.365 303.842 220.391
283.691 222.433 153.726
239.548 271.455 198.541
251.547 217.839 226.199
41.7805 139.94 460.547
72.4558 181.174 414.118
175.426 129.614 399.144
123.884 157.664 408.204
138.774 97.2728 444.153
107.444 224.909 368.534
135.464 255.213 323.109
331.095 6.58532 300.042
305.675 36.4753 332.527
306.087 -12.4457 353.96
283.38 135.391 277.519
298.414 86.7037 307.175
315.716 101.078 250.202
239.034 44.0758 407.217
271.981 67.3507 360.605
234.804 93.531 381.305
186.122 229.885 305.553
210.576 155.941 349.747
236.775 185.087 289.177
-50.7792 97.433 494.459
-4.01385 111.998 488.193
-146.514 53.1644 476.05
-98.0375 75.9322 491.404
-3.67705 18.7099 528.361
-52.4687 47.8944 517.186
-52.3005 -1.72567 528.933
-325.726 -76.1334 359.293
-294.325 -42.9977 394.562
-214.1 -127.336 456.536
-258.709 -79.6357 429.44
-250.644 -167.865 426.735
-256.034 -10.618 426.199
-213.161 18.2131 449.126
-1.90914 -258.769 523.972
-64.6032 -237.737 524.737
-60.6313 -291.577 516.866
-53.1744 -82.0111 528.835
-60.784 -164.887 525.084
-0.89386 -109.788 533.361
-165.175 -240.501 495.198
-117.793 -213.881 515.78
-154.89 -187.103 493.014
-157.944 -7.47437 485.809
-160.167 -87.3613 490.68
-102.13 -41.4366 516.398
-381.865 -101.795 248.398
-358.192 -98.6538 303.493
-405.603 -102.005 128.037
-400.199 -104.573 191.722
-353.266 -210.997 263.765
-383.422 -154.13 224.774
-376.283 -209.318 198.09
-381.907 -68.8239 -115.577
-402.819 -72.1849 -65.5803
-376.522 -195.703 -3.03023
-394.129 -137.743 -38.9083
-360.234 -190.28 -63.7329
-413.827 -80.6609 -11.5984
-414.993 -91.424 50.2387
-271.092 -376.746 145.559
-309.015 -344.362 107.288
-271.877 -369.389 77.8542
-361.734 -268.009 164.279
-340.611 -308.246 136.967
-326.185 -307.109 207.575
-326.583 -292.54 4.88186
-339.417 -303.736 73.4595
-359.76 -261.629 40.9391
-404.326 -157.564 96.1154
-389.458 -211.839 70.2672
-390.601 -216.015 132.044
-329.196 6.22598 -208.738
-350.595 -37.4526 -170.898
-247.23 74.3576 -269.62
-298.164 44.7165 -241.633
-264.865 -124.014 -216.793
-281.228 -43.1681 -228.419
-228.743 -86.9844 -250.9
-1.81596 165.516 -344.436
-59.1952 144.823 -347.925
-49.4577 53.8536 -345.062
-55.5469 96.0183 -355.871
-2.54202 71.9726 -355.17
-119.936 123.015 -339.58
-171.288 106.432 -316.334
-106.644 -213.193 -220.971
-102.778 -155.17 -249.577
1.42039 -164.468 -225.216
-169.666 -122.456 -267.669
-137.549 -140.826 -263.049
-170.904 -184.268 -244.789
-2.39793 -15.1613 -317.241
-86.7612 -67.3675 -286.553
-53.603 -12.7072 -319.602
-168.365 50.0606 -295.782
-104.159 9.1815 -315.073
[...]
POINT_DATA 642
SCALARS Mean_Curvature double 1
LOOKUP_TABLE default
0.00558198
0.00346425
0.00643411
0.00563889
0.0106923
0.00472913
-0.0124884
0.00698709
0.00250915
0.00596597
0.00419643
0.00602684
-0.0020988
0.00381561
0.00411833
0.00463278
-0.00196827
0.00372038
0.00399719
0.00281963
0.0123712
0.00563265
0.00414767
-0.000203716
0.00386556
0.00449895
0.00440941
0.0034
0.00942646
0.00286357
0.0128842
0.00741552
0.00366759
0.00342184
0.00478227
0.00485634
-0.000792587
0.0139049
0.0145791
0.00403003
0.00469974
0.00759629
0.00518041
0.00530427
0.00745258
0.00568268
0.0045582
0.00477434
0.00623096
0.00386348
0.00551553
0.007777
0.00369636
0.00593493
0.000578719
0.00533791
0.00840085
0.00741825
0.00409623
-0.00117498
-0.00082395
0.00358141
0.0058724
0.00594679
0.00592433
0.00681685
0.00601835
0.00454864
0.0016383
0.0126327
0.00641754
0.00468885
0.00820292
0.00266603
0.0116564
-0.00139798
0.00222878
0.00476203
0.0044299
0.00432094
0.00380214
0.00551587
0.00483817
0.00564211
0.00728435
0.00700446
0.00244051
0.00498338
0.00087057
0.00395732
0.0103506
0.0038122
0.00395707
0.00543685
0.00156237
0.0045231
0.00674685
0.00428488
0.00106344
0.00417594
0.0153192
0.00515812
0.0070461
0.0113273
-0.00735873
-0.000680419
0.00424797
0.00570995
0.00578751
0.00766877
0.00704473
0.00862973
0.00445632
0.00404954
0.00205872
0.00418596
0.00562638
0.00439059
0.0058975
0.00644812
0.010296
0.00671141
0.00734283
0.00680392
0.00625511
0.006792
0.0076196
0.00386948
-0.000716154
0.00356964
0.00542878
-0.00166388
-0.000327879
-0.0146925
-0.000993086
0.00588957
0.00430416
0.0117041
0.00596687
0.00561224
0.00549116
0.00513663
0.00674457
0.00247666
0.00554673
0.00429578
0.0022233
0.00446967
0.00633139
0.0062324
0.0046243
0.00589737
0.00479103
0.00890046
0.00537569
0.00540718
9.70703e-05
0.0126951
0.00495161
-0.00243741
0.00714747
0.00780964
0.00509678
0.00677041
0.00714406
0.00385673
0.00741164
0.00434458
0.00746521
0.00748271
0.00505749
0.00502395
0.00537306
0.00515914
0.00501568
0.0056423
0.00557717
0.00304542
0.00508208
0.00289098
0.00170275
0.00239716
0.00627335
0.00419801
0.00550903
0.00503613
0.00339632
0.0008403
0.0024095
0.000477922
0.00201968
0.00277629
0.00771742
0.00461003
0.00762963
0.00804281
0.00929783
0.008242
0.0015366
0.00265198
0.00337615
0.00305805
0.00491815
0.00451349
0.00392974
0.00292385
0.00298363
0.00730104
0.00650768
0.00442115
0.00678097
0.00891914
0.00733227
0.00778187
0.00734706
0.00191501
0.00490809
0.00218365
0.00471313
0.000992225
0.00510579
0.00640211
0.00222589
0.00267453
0.00528687
0.00121255
0.00565344
0.00417369
0.00325945
-0.000954922
0.00648288
0.00661497
0.00601724
0.00571857
0.00649137
0.00399571
0.00500288
0.00581246
0.00521579
0.00553964
0.00393808
0.00241015
0.00468072
0.00494154
0.00867538
-0.00376962
-0.00341652
0.0119815
0.0125396
0.0148775
0.00816707
0.00511451
0.00604831
-0.000691174
0.00499391
0.00581619
0.00543358
0.00377864
0.00421321
0.00845681
0.00565918
0.00558599
0.00950082
0.00720224
0.00805708
0.0128517
0.00820614
0.00785477
0.00688992
0.00646365
0.000173363
0.00779201
0.00658865
0.00126056
-0.00243204
0.00296241
0.00724581
0.0013238
0.00752056
0.000659996
0.0214324
0.0127443
0.00434088
0.00471216
0.000397526
0.00292691
0.00197241
0.00120092
-0.00138483
0.00926089
0.00628512
0.00671072
0.00628304
0.00458697
0.00466029
0.00748069
-0.000629694
0.00701038
0.000219664
0.00568446
0.00221753
0.00272516
0.00107803
0.00275774
0.00527453
0.00400221
0.00503339
0.00537396
0.00599831
0.00380313
0.00569617
0.00403681
0.00528676
0.0054886
0.00490103
0.00278046
0.00253769
0.00158707
0.00772599
0.00666236
0.0044499
0.00676962
0.00757442
0.00797673
0.00782471
0.00614944
0.00502289
0.00063641
0.00491277
0.00117036
0.00578752
0.00471153
0.00326686
0.00518152
0.00689616
0.0032633
0.00196754
0.0041789
0.0109729
0.00744105
-0.000448782
0.00288212
0.00229936
0.0043802
0.00536041
0.00510252
0.0017786
0.0085026
0.00301526
0.00425245
0.00336449
0.00396001
0.00421784
0.00160712
0.0065177
0.00319325
0.00576186
0.0052905
0.00485807
0.00678164
0.00564486
0.00540228
0.00626456
0.00366225
0.00430175
0.00576412
0.00472218
0.00496674
0.00587654
0.00753715
0.00363724
0.00206084
0.00350311
0.00465648
0.00334436
0.0017727
0.00368172
0.00465086
0.00631476
0.0040444
0.0118868
0.00700919
0.0126634
0.0115738
0.000433804
0.000506184
-0.00352464
0.00735171
0.00694956
0.012429
0.00372304
-0.00245207
0.00774608
-0.00344221
0.00117443
0.00461597
0.00570916
0.00531206
0.00258765
0.00520351
0.00591156
0.00500192
-0.000497305
-2.04328e-06
0.00846156
0.00879655
0.0142796
0.0115632
0.0090443
0.00661756
0.00557312
0.0102214
0.00680611
0.00794967
0.0087028
0.00896412
0.00888607
0.00752681
0.00556332
0.00704949
0.00636413
0.00690524
0.00394581
0.00563484
0.00426076
0.00388943
0.00447328
0.00448859
0.0108496
0.00388692
0.00688857
0.00465377
0.00343477
0.00419183
0.00497359
0.003145
5.34609e-05
0.00321256
0.0037417
0.00410329
0.00696115
0.00504867
0.00638291
0.00599142
0.0058042
0.00520469
0.00976393
0.00813172
0.00735505
0.0040116
0.00447442
0.00533422
0.00300982
0.00297143
0.00897269
0.00570477
0.00515359
0.00464876
0.00440095
0.0074344
0.00728142
0.00538063
0.00741976
0.00570487
0.00782134
0.00490811
0.00376905
0.00302995
0.002108
0.00239898
0.00649739
0.00476738
0.00861808
0.00636551
0.00771734
0.0120053
0.0137914
0.0074781
0.00736851
0.00307335
-0.00159117
0.00847302
0.0110644
0.0123561
0.00778392
0.00357199
0.0101367
0.00455957
0.0113543
0.0130023
0.00405888
-0.00140271
0.015425
-0.0146846
0.0152877
0.000108193
0.0130773
0.00935127
0.00562881
0.0129417
-0.000483418
-0.00746501
0.00586616
0.00563052
0.00384645
0.00509323
0.00437027
0.00473506
0.00436124
0.00538166
0.00589978
0.00129562
0.00740041
0.00515269
0.0113269
0.00684424
0.013521
0.0112639
0.00480035
0.00527866
0.00294109
0.00501336
0.00392682
0.00372318
0.0025083
0.00369225
0.00571317
0.00474422
0.00556284
0.00573665
0.00604041
0.00373448
0.00600884
0.00603416
0.00509807
0.0016025
0.00492168
0.00639452
0.00628002
0.00189494
0.00689073
0.00152485
0.00633241
0.00271461
0.00331972
0.0059359
0.00180289
0.00650124
0.000444965
0.00578565
-0.000394101
0.00764172
0.00756376
-0.00130059
0.00676348
0.00184885
0.00659055
0.00615795
0.00517353
0.00625412
0.00511998
0.00215367
0.00758924
0.00759724
0.00804378
0.00591938
0.00298292
0.00287007
0.00369234
0.000961559
0.00403132
0.00631514
0.00467039
0.00450209
0.00407935
0.00528235
0.00867565
0.00614301
0.00572223
0.00577409
0.00226079
0.00415849
0.00435086
0.00652266
0.00477117
0.00558037
0.0050033
0.00442308
0.00410354
0.0137178
0.011947
0.0151249
0.00490988
0.00313138
0.00554556
0.00469741
0.00357726
0.00582168
0.00491737
0.005047
0.00393275
0.00400199
0.00497895
0.00406064
0.00560024
0.00483914
0.00310185
0.0035917
0.00223351
0.00492817
0.00383998
0.00135516
0.00560938
0.000696095
0.0103974
0.0043241
0.00622145
0.011047
0.0142126
0.0123057
0.00378901
0.00294747
-0.00024045
-0.0038895
0.00393257
0.00210552
0.000197587
0.00280629
0.000230825
0.00934098
0.0130813
0.0186613
0.00771872
0.00139939
0.00320717
-0.00157107
0.00255092
0.00642803
0.00723532
0.00451718
0.00860799
0.00561436
SCALARS CoVolArea double 1
LOOKUP_TABLE default
3625.85
3663.61
3053.62
2987.98
2928.59
2669.33
4708.28
3154.7
3217.82
2490.04
3374.6
2497.68
6069.35
3623.41
3250.06
3172.92
4234.59
4656.86
4746.93
4222.28
3495.62
4884.06
3565.67
5876.33
3837.22
3532.08
3897.96
4176.35
2816.06
3713.83
3119.7
3751.81
3910.43
3943.48
4065.92
4218.24
4582.25
2133.98
2151.04
3653.85
3738
4055.98
3946.63
3506.79
2677.52
2969.38
3938.93
3220.64
3391.67
4277.1
3180.06
3455.25
3227.17
3350.32
4431.13
3046.68
3256.67
2612.42
4152.42
4974.78
4673.4
4278.28
3794.32
4181.56
3717.86
3925.6
3095.9
3961.04
5344.38
2879.79
4044.27
3120.64
3298.64
4105.36
2205.7
5837.78
3627.26
3574.78
3919
3297.09
4117.91
2937.64
3607.24
2775.81
3328.61
2578.84
3996.6
4356.31
4525.28
4764.86
3227
3737.3
3740
3652.99
4170.41
3799.34
3370.29
3413.59
5698.17
4125.1
2855.3
3645.82
2086.56
3632.62
8182.92
5463.85
3962.57
2712.79
3651.4
2914.07
3875.02
2889.04
3600.06
4104.99
3690.58
3846.01
3932.07
3419.45
3998.01
3945.14
3056.67
3314.11
3650.46
3984.07
4117.22
3605.9
3314.99
3798.93
4829.33
3428.23
3362.8
5274.7
3123.51
6981.17
3340.59
3341.16
3325.35
2088.3
3090.53
3377.59
3547.21
3945.29
3296.93
3899.74
3683.83
3905.52
3768.4
4696.88
3868.94
3531
4200.65
4184.91
4024.65
3051.27
3585.49
3675.69
5517.24
3848.07
3713.65
5830.19
2346.6
3007.09
4152.46
3072.46
3118.5
4303.19
2980.22
4331.91
2593.54
2632.88
3336.95
2961.78
3001.08
3003.99
3645.15
2924.78
2963.57
4620.58
3199.69
4628.02
3601.32
3590.25
2973.12
3669.84
3479.31
3192.46
3415.68
3873.11
4215.82
5024.36
5020.72
4745.33
2959.16
3883.24
3144.14
2607.12
3310.08
2915.54
4227.55
3582.7
3618.4
3656.86
3567.43
3141.35
3647.42
3921.56
3917.62
2976.87
3296.97
4061.43
2868.12
3129.51
2538.39
2624.39
2969.11
4539.48
4249.07
4616.06
4614.45
4924.29
4082.27
3494.4
4884.13
4673.53
4620.48
4602.26
4230.55
4844.17
4640.02
4860
3340.75
4050.1
3722.16
3813.49
3667.56
4281.32
3817.11
3953.32
3962.83
3766.87
4330.86
4822.51
4866.66
4790.23
3515.43
4555.7
4896.12
3620.08
2558.95
2571.25
3821.08
3895.01
3890.46
5570.06
4681.62
4157.46
4284.89
5044.01
3305.19
3024.7
3601.51
4397.76
3509.19
3307.08
3096.54
2998.11
4212.63
5168.1
5194.3
4710.18
4472.66
2932.47
3236.88
4078.67
5386.99
3967.12
3054.76
3893.98
2839.1
4397.43
2250.92
2803.35
3629.6
3123.16
6304.32
4898.95
4570.13
5471.54
5821.77
2854.68
3873.26
4401.29
3092.67
3916.99
3279.12
2542.75
4791.04
3328.98
4742.38
3007.14
3612.86
4066.47
3865.28
3529.35
3438.49
3617.73
2909.4
2788.83
2758.2
4307.59
2850.25
4024.82
2821.93
2805.89
3484.23
4597.25
4678.4
4809.4
2620.51
2570.22
3566.32
2764.18
2696.84
2605.97
3357.14
3414.19
3359.28
5128.29
3954.92
4030.89
3181.9
3654.43
3570.96
3694.21
3516.39
4378.67
4467.62
4378.97
2819.04
3308.08
4444.41
4619.43
5716.3
4780.21
3222.09
3349.18
4147.26
3291.44
3876.82
3542.36
4046.6
4193.2
4023.34
4326.76
3758.59
3639.13
4253.69
4483.95
3643.83
3313.66
3282.44
3771.75
3333.83
3810.05
3411.28
3212.25
3849.33
4232.33
4214.97
3922.93
3993.87
4221.87
4526.23
3997.78
3831.01
4474.12
4676.16
3760.85
3596.12
3256.22
2613.52
2351.86
3109.59
3748.56
4560.26
5711.5
8439.05
3651.22
2707.1
2574.63
4111.35
4780.37
3406.48
5923.84
5101.37
5687.14
3866.34
3845.28
4954.28
4407.43
3874.25
4631.27
5072.76
3979.58
3257.72
3639.55
2539.18
2464.26
3500.12
4350.98
3262.82
2927.48
3041.99
3969.31
3077.44
2989.48
3102.4
3472.24
4048.4
4974.39
4534.1
5027.79
3523.59
3900.02
3928.81
4206.74
3836.44
3534.08
3240.97
3600.21
3884.21
3171.37
3765.5
3196.6
3894.71
3909.62
4272.16
3609.59
3675.95
4075.93
3782.22
3958.22
3526.1
4164.49
3955.87
4010.91
2767.35
3380.64
3442.83
4676.31
4387.53
4553.38
4102.09
3951.89
3772.57
3312.98
3498.17
3546.08
3669.69
3705.69
3906.73
4350.67
4003
4027.04
3990.68
4337.7
4026.82
4147.07
4232.34
3595.84
3448.01
3521.4
3463.14
3381.71
3898.34
3966.43
3959.54
3510.55
3460.79
3617.99
6755.21
3042.25
2650.42
2609.57
2507.5
3519.52
3278.05
2710.89
2563.65
2595.24
3240.67
7040.81
3913.15
5991.32
4070.39
3563.82
4676.53
1865.71
2000.12
4849.19
3825.5
9490.48
7166.21
6902.75
3541.79
3356.34
3171.2
3254.69
3268.46
3256.14
3427.83
4203.97
2085.86
3306.68
2364.24
2761.32
1965
2721.09
3966.71
3729.58
3985.26
3595.52
3422.85
3417.35
3745.27
3559.72
3554.89
3806.35
3798.51
3806.34
3297.33
3756.34
3154.01
3177.31
3510.51
3833.37
3795.37
4044
3618.98
3762.71
3246.3
3975.18
3001.39
3198.86
3718.92
3160.51
4162.32
3264.24
4255.89
4188.27
4635.65
4002.65
3544.91
4447.29
3219.95
4232.41
4141.82
3003.67
3428.86
2832.91
3651.28
4858.78
2638.7
3355.22
2616.96
2884.24
3663.53
5484.97
4599.6
4921.97
4091.56
4116.15
3730.97
3986.22
4347.9
3989.81
3653.69
3598.98
4067.46
4329.01
3979.63
4226.58
3775.21
3746.39
3840.64
4726.48
4641.06
4789.29
2207.81
2605.81
1884.57
2153.54
3428.13
3696.36
3641.9
3511.77
3487.3
3210.73
4000.82
3744.31
3683.53
3565.36
3774.74
3937.59
3995.49
4026.43
3742.04
4675.67
4262.76
3670.15
4200.83
5026.66
3474.57
4107.11
2627.16
3857.58
3542.19
3549.6
2992.66
2491.25
3380.22
6095.57
5658.95
6147.29
3698.13
5100.56
5311.81
4739.46
5967.91
2872.55
2557.8
2209.37
2715.83
3547.53
3715.18
5083.33
3719.72
2851.01
2710.96
3971.93
2849.15
4381.97
SCALARS SignedDistance double 1
LOOKUP_TABLE default
165.789
178.736
164.449
167.246
143.755
184.038
260.095
133.961
164.361
181.959
159.789
173.152
189.435
178.406
179.302
182.273
167.103
155.613
150.644
171.567
146.662
179.186
182.332
194.793
165.618
162.487
164.487
161.927
202.124
175.895
157.551
176.431
170.121
171.365
136.747
132.707
219.67
207.063
203.361
175.907
170.038
184.022
179.746
183.543
164.654
173.162
182.298
181.578
180.06
182.707
179.682
170.678
160.424
180.885
181.289
162.779
169.151
171.323
161.211
166.774
174.623
159.119
136.709
146.553
139.24
146.265
167.683
138.904
147.796
147.433
127.577
152.189
183.189
171.514
178.645
190.077
179.49
191.608
194.248
184.104
186.692
187.925
187.034
179.316
167.801
168.765
165.901
167.87
156.805
159.734
152.086
170.778
167.034
162.188
170.687
155.377
159.447
163.223
170.963
164.263
167.653
175.564
210.186
206.752
237.655
154.52
141.948
174.524
146.792
158.504
133.156
151.224
163.417
157.88
158.023
172.344
167.2
175.833
126.983
147.834
156.553
171.427
196.052
122.715
125.646
199.928
176.762
156.721
209.528
181.31
188.031
215.748
209.049
254.621
215.623
169.037
167.597
203.644
183.474
166.608
167.647
168.007
167.814
176.443
175.565
182.744
187.938
162.94
172.043
173.798
150.208
139.432
158.022
191.775
167.27
164.075
173.23
204.104
174.592
197.86
183.148
190.324
171.775
168.025
160.576
191.442
179.231
190.129
171.77
173.299
179.427
173.029
177.132
177.365
179.34
177.514
174.859
185.649
181.467
186.528
186.351
185.097
180.566
179.216
179.498
177.897
180.548
185.491
184.541
187.119
185.256
183.227
158.135
158.456
174.114
164.854
166.336
163.178
167.408
186.484
181.895
182.263
179.902
181.06
180.112
180.875
165.141
162.82
168.901
168.751
161.51
164.791
176.306
167.502
173.959
179.856
182.585
172.878
157.956
170.929
167.389
156.042
157.936
156.413
150.736
181.224
162.253
154.427
159.936
164.479
156.813
164.842
133.641
137.072
134.519
146.865
142.218
142.285
145.736
143.485
148.886
164.685
151.876
152.038
177.264
181.884
166.015
171.01
158.991
161.588
138.798
135.908
134.418
151.724
138.792
149.636
138.069
146.798
150.002
146.117
154.442
122.439
130.61
133.354
157.552
146.113
143.789
155.824
142.533
130.359
188.586
164.965
173.069
193.821
194.539
162.94
161.379
182.853
175.479
175.729
168.707
160.867
180.669
176.732
187.312
184.775
181.639
184.809
188.432
177.284
190.502
194.219
177.805
187.981
185.378
181.101
198.641
188.554
197.495
183.227
187.028
187.699
188.265
184.702
182.976
183.581
185.111
183.294
179.941
191.509
186.659
192.122
180.163
183.012
184.227
188.452
189.542
192.58
172.799
175.739
175.638
173.017
163.411
165.836
161.483
169.49
169.93
166.753
166.78
170.242
170.214
173.185
152.729
154.197
145.08
166.453
157.823
164.44
162.667
164.088
166.867
171.505
169.347
166.747
174.977
170.693
175.977
177.089
165.323
166.998
167.473
158.048
161.025
168.982
164.151
166.189
167.576
174.339
157.563
159.224
163.843
160.304
157.341
158.332
163.111
160.728
162.829
174.573
166.2
163.116
163.475
160.19
176.61
164.841
168.593
164.688
170.95
138.918
149.732
187.854
174.194
180.453
162.659
171
219.864
218.297
250.648
193.17
207.406
199.936
217.266
216.817
220.294
181.353
206.539
181.519
137.615
137.606
155.64
142.46
158.862
144.707
161.005
190.206
179.01
146.85
165.848
166.264
167.143
170.267
160.437
152.442
159.049
145.784
145.604
160.218
147.902
137.921
131.74
150.633
133.523
139.749
163.664
159.873
163.533
164.714
159.552
166.059
155.969
156.017
150.43
177.289
174.495
182.484
167.637
174.271
172.254
172.782
173.423
169.562
130.13
133.766
143.427
140.166
134.746
130.309
167.143
149.157
162.099
161.291
160.138
153.913
170.261
174.354
152.294
164.387
205.012
183.006
193.6
126.993
120.12
129.878
119.292
126.282
122.225
132.213
179.071
172.911
161.491
198.44
187.604
210.252
149.194
164.195
150.669
160.915
162.683
181.412
189.766
174.363
215.454
205.6
195.466
204.091
209.456
174.145
197.101
212.329
208.535
201.083
208.304
222.863
223.677
253.657
237.413
210.202
223.973
207.826
211.118
233.7
215.46
253.155
239.144
229.33
170.729
167.953
178.101
172.917
168.625
168.09
167.056
210.141
207.658
177.222
196.263
188.503
202.841
196.307
162.782
166.558
163.399
168.34
168.526
170.889
173.461
169.612
169.648
173.307
170.725
167.908
164.885
171.093
166.792
164.577
168.321
167.615
166.24
177.111
172.784
178.678
169.113
177.633
185.183
186.145
175.649
175.885
190.718
186.163
187.465
178.531
184.441
175.473
158.561
170.016
168.618
159.393
170.114
175.411
177.495
175.583
171.821
170.333
175.906
165.551
169.733
178.132
180.375
170.752
175.617
172.596
156.87
143.312
150.465
155.461
157.542
131.675
156.495
140.396
129.557
133.391
166.193
161.913
167.385
171.388
159.785
145.056
152.71
153.707
213.942
202.208
207.861
205.073
180.236
168.877
163.387
165.035
172.941
181.874
162.388
167.318
165.281
164.119
163.854
173.551
165.048
169.423
166.587
173.023
170.006
166.351
173.594
210.886
221.745
212.878
203.455
185.771
151.646
175.786
165.172
175.211
187.179
175.641
202.734
179.427
189.355
193.096
193.534
193.643
195.239
170.419
171.441
174.821
180.399
189.98
196.277
200.399
199.14
181.078
173.366
194.651
185.467
199.733
