# vtk DataFile Version 4.2
vtk output
ASCII
DATASET POLYDATA
POINTS 642 double
-189.825 286.811 91.0637
179.457 274.495 80.2048
-204.66 -344.555 120.704
191.361 -338.287 124.809
-4.2403 -298.329 462.338
-5.82993 107.815 400.789
1.17652 -198.43 -136.684
-2.50858 198.252 -271.222
319.748 22.5637 -107.36
266.979 -50.6906 287.416
-336.439 24.9264 -110.87
-288.192 -53.5386 290.114
-242.81 145.546 175.1
-165.092 43.6134 381.325
-112.019 258.908 233.576
98.9361 256.625 231.749
0.0155319 331.231 76.0317
118.82 277.333 -124.362
-120.603 284.334 -127.596
-212.262 112.879 -209.999
-365.164 186.75 -63.9799
-346.49 -36.0925 59.2215
158.995 39.8857 373.116
234.276 125.976 174.681
-166.342 -213.987 412.831
-2.71358 -42.0869 470.19
-291.577 -217.244 -10.1652
-288.124 -236.969 218.226
-5.50239 54.2823 -272.915
-189.854 -135.336 -179.906
343.058 179.514 -61.9869
207.346 111.318 -212.803
271.234 -232.119 212.988
151.908 -210.216 405.591
108.588 -390.466 332.456
-114.922 -394.127 337.039
-2.25487 -378.456 199.331
-163.006 -288.032 -57.6904
151.473 -288.725 -58.1038
183.07 -135.485 -170.78
279.382 -211.419 -13.3295
334.346 -32.4347 52.3957
-230.093 236.773 125.953
-184.812 233.416 207.457
-153.07 295.472 170.578
-237.776 1.54396 345.16
-225.592 81.2502 300.192
-279.374 29.6593 256.312
-58.6234 197.662 320.731
-127.624 162.089 318.584
-70.7557 81.9435 412.281
-82.7125 316.497 167.804
-99.5235 330.589 89.9627
48.3056 196.878 318.505
-0.935578 255.097 250.507
89.1699 329.306 85.6666
70.6142 316.272 168.733
137.908 289.035 168.383
-63.5615 329.355 -19.2067
-187.799 277.237 -32.7843
179.412 270.496 -27.8776
57.294 328.785 -15.2018
-64.7283 256.991 -213.528
-3.58533 305.178 -140.088
56.5858 254.618 -211.929
-284.629 246.29 -90.161
-307.197 228.961 -45.6113
-101.558 159.784 -271.953
-185.498 214.234 -186.002
-379.21 119.644 -95.0851
-323.687 159.519 -158.545
-306.038 89.7993 -173.027
-339.812 168.421 -0.0108258
-355.485 19.8001 -39.8059
-377.211 121.363 -47.4473
-313.378 72.1523 85.2929
-320.531 -66.8874 196.183
164.051 224.813 205.576
211.895 228.008 106.034
59.9247 80.7752 405.161
118.621 156.965 314.239
261.56 31.0802 253.719
214.81 76.9414 294.529
224.695 -2.41488 339.748
-73.3788 12.9419 451.989
-6.16107 39.7668 453.067
-242.908 -114.762 351.379
-184.542 -47.5686 402.404
-2.05671 -193.917 464.781
-87.4867 -137.96 457.057
-102.001 -254.475 458.549
-332.654 -146.416 154.854
-301.136 -144.735 257.669
-322.007 -113.291 -64.1996
-337.136 -123.752 32.2383
-258.444 -305.077 170.158
-313.241 -237.877 106.622
-261.096 -287.765 58.3554
-212.862 7.43712 -201.577
-271.524 -67.3724 -147.949
-3.45296 114.93 -301.962
-86.2944 105.489 -278.523
-159.577 -163.642 -166.557
-126.641 -41.3932 -221.276
6.85871 -30.7326 -190.947
176.892 205.569 -179.238
95.0882 156.966 -268.947
287.341 224.461 -39.703
267.467 243.74 -89.2196
293.234 83.317 -167.76
306.455 156.123 -151.576
358.53 109.665 -90.8075
243.223 -297.279 170.51
193.815 -320.263 287.193
142.037 -374.461 251.063
230.171 -105.143 345.283
225.309 -221.751 327.395
283.908 -142.481 249.777
52.4736 -358.97 418.124
143.07 -301.506 398.832
91.5341 -253.621 454.725
50.7627 -418.288 275.506
107.92 -372.227 154.193
-60.4529 -362.356 422.373
-3.90316 -427.267 353.394
-116.526 -372.85 159.008
-57.9748 -420.019 277.548
-151.827 -380.736 252.815
130.739 -324.745 43.1765
164.567 -324.422 17.3699
-174.719 -328.315 21.8349
-133.732 -322.044 43.8805
131.556 -238.231 -108.674
1.2544 -226.887 -72.911
-133.954 -236.502 -107.853
213.838 -269.082 -45.6539
248.394 -280.516 53.651
139.75 -165.157 -167.821
163.602 -228.948 -129.965
311.381 -110.534 -61.2208
246.911 -178.751 -105.299
265.285 -66.7478 -141.894
294.718 -232.873 105.023
340.482 11.8063 -33.2045
326.929 -116.374 18.8165
308.448 -145.784 158.779
299.605 -67.2989 189.87
76.6479 -137.443 454.843
176.803 -48.5744 396.975
62.4688 11.3679 444.635
-209.147 -325.603 292.703
-155.665 -304.599 403.743
-242.137 -223.83 336.685
-173.774 -228.997 -132.157
-220.837 -272.889 -47.0947
-255.791 -180.65 -108.925
209.74 12.4792 -190.464
107.581 -54.0711 -225.796
78.5118 111.143 -276.808
296.592 60.1447 81.9782
352.593 109.495 -47.5135
316.199 165.736 -0.481572
-213.087 263.785 108.574
-190.892 272.424 156.504
-169.628 298.174 137.427
-209.091 200.16 193.065
-205.172 242.23 174.003
-236.195 207.787 138.241
-134.739 285.165 199.546
-172.397 267.109 190.08
-150.793 251.695 221.638
-265.122 -25.1595 319.532
-262.731 16.2468 302.704
-286.547 -11.0257 274.854
-203.494 62.0232 341.796
-233.78 41.883 326.074
-207.265 23.5399 363.843
-267.862 72.1917 228.099
-254.372 57.1458 281.331
-236.764 106.948 248.795
-30.1129 151.939 355.73
-61.9813 136.251 362.804
-39.6708 95.9059 411.248
-115.716 215.035 280.424
-92.1663 185.655 321.052
-83.5497 226.221 284.833
-113.058 63.6275 400.366
-102.198 117.257 359.745
-148.001 93.2281 354.849
-198.06 157.47 248.329
-176.682 120.539 309.138
-155.111 198.562 263.396
-133.608 317.795 137.807
-145.018 315.459 95.8476
-102.471 296.34 198.093
-116.9 311.028 171.88
-66.8264 338.552 80.5221
-94.8875 327.938 132.711
-51.3017 326.254 125.401
20.6765 152.789 355.254
-3.80032 197.075 321.696
58.314 257.504 242.828
27.9393 226.47 291.167
72.2603 224.555 281.167
-35.6888 225.674 292.235
-68.7629 256.941 246.942
128.689 309.98 89.2599
119.246 312.838 134.968
154.447 290.063 134.746
45.4433 327.646 126.096
81.6996 326.897 130.525
60.2418 338.057 80.8733
120.07 280.438 197.319
102.967 306.992 171.087
88.0479 294.781 197.454
-44.7444 290.877 201.01
40.4606 292.395 201.597
0.781673 312.114 166.779
-127.185 321.725 39.1795
-185.88 280.705 24.7931
-40.9982 338.415 32.7293
-82.291 338.308 37.8728
-154.247 284.549 -77.2932
-107.668 318.569 -19.915
-89.0897 315.577 -77.1781
179.763 272.589 18.4441
118.511 318.767 36.4371
81.9677 310.268 -73.9642
103.533 315.362 -14.9696
154.779 274.164 -79.4835
75.9808 336.514 39.755
36.2246 340.778 33.5811
-33.5098 231.363 -246.45
-2.81605 259.356 -218.166
27.3399 230.592 -245.973
-59.9996 299.535 -136.756
-33.6202 283.786 -179.014
-93.0466 275.231 -174.56
84.505 271.101 -171.717
26.6178 282.758 -178.658
51.831 296.693 -136.356
-3.42688 330.428 -20.8269
25.5592 321.028 -83.781
-34.0939 322.46 -84.2313
-261.829 253.704 -52.4104
-240.652 238.212 0.00675483
-213.524 245.071 -96.5259
-254.158 261.703 -66.2036
-336.706 212.576 -53.5401
-298.958 243.43 -64.0101
-329.475 225.757 -77.7546
-51.821 181.617 -275.195
-83.7541 214.811 -247.925
-204.116 162.441 -205.914
-133.761 190.962 -239.709
-147.943 136.928 -260.337
-115.415 239.773 -210.402
-155.867 251.071 -164.593
-361.898 86.8978 -107.217
-346.627 107.069 -139.971
-327.938 61.4913 -145.169
-352.967 177.744 -109.047
-360.156 137.221 -131.961
-386.484 148.04 -80.6154
-279.535 106.365 -191.663
-319.929 124.472 -170.541
-289.92 138.973 -188.041
-249.924 228.129 -144.565
-273.806 190.45 -170.228
-305.882 211.555 -129.52
-262.632 212.143 31.7358
-354.912 180.601 -35.5878
-330.222 198.566 -20.7151
-278.199 185.34 46.6941
-287.828 154.182 61.7827
-351.631 23.545 -73.9162
-377.525 92.7765 -70.3063
-357.834 72.6724 -15.8236
-372.789 93.523 -48.6115
-351.999 -0.387457 7.6177
-386.586 122.785 -63.7695
-383.574 142.721 -54.0966
-301.803 -13.1053 232.57
-306.376 -57.5493 247.129
-289.047 92.2655 131.747
-294.115 35.232 199.938
-332.36 -60.1018 132.906
-313.93 -8.37805 166.138
-332.465 19.6454 61.8409
-366.227 142.514 -19.8628
-354.61 112.294 -1.70241
-337.98 130.816 19.5046
172.991 264.791 152.109
201.562 251.428 93.2102
134.481 245.867 219.009
154.998 261.185 186.081
219.439 189.887 122.975
183.769 237.65 168.763
189.351 182.976 194.992
27.0843 95.7795 407.464
51.8742 137.29 359.077
140.619 90.9285 347.786
94.5526 116.966 353.403
106.339 61.9021 390.178
82.3613 182.674 317.264
104.229 210.553 277.292
265.921 -8.26329 272.598
247.126 14.9248 297.841
248.053 -24.1652 316.67
226.818 96.2738 249.188
240.904 55.3825 276.021
252.144 68.1143 228.502
196.262 18.7161 357.833
221.41 38.9525 319.404
192.84 58.6793 334.919
143.194 189.751 262.298
167.33 115.117 305.211
185.057 144.392 252.197
-40.0925 62.6664 438.385
-6.47536 72.8276 432.453
-114.208 29.5758 420.711
-73.6854 46.5266 436.488
-6.05456 5.11448 466.106
-41.6755 25.9022 457.658
-41.2674 -9.04942 467.356
-272.404 -75.9701 320.485
-245.733 -48.3043 349.732
-177.801 -125.419 402.532
-217.04 -78.4683 379.405
-207.037 -165.312 376.155
-214.181 -22.1554 376.182
-178.244 0.219587 394.455
-2.32183 -254.544 464.237
-59.0485 -235.515 464.955
-53.33 -278.857 462.766
-42.1939 -81.7443 463.75
-53.0241 -164.263 463.814
-0.894452 -107.971 470.665
-132.444 -240.009 441.706
-96.7511 -217.323 455.921
-121.875 -192.036 436.674
-126.39 -17.7758 426.874
-128.666 -88.7764 432.281
-79.171 -44.6927 456.581
-317.436 -101.609 225.518
-298.678 -96.0167 273.931
-337.323 -100.793 120.061
-333.049 -105.435 177.752
-295.433 -192.601 241.298
-322.355 -142.514 205.303
-315.734 -190.335 180.296
-329.916 -54.1131 -86.4639
-344.438 -59.5036 -47.6616
-317.209 -171.145 12.2942
-336.154 -116.849 -24.5229
-305.712 -162.765 -41.1489
-349.748 -70.1215 -5.34929
-348.749 -83.8093 48.36
-234.512 -327.744 145.721
-266.332 -299.918 112.372
-236.178 -318.675 90.5522
-307.124 -240.179 152.519
-291.377 -271.859 133.411
-276.098 -274.021 193.953
-279.4 -254.214 23.2531
-291.059 -265.779 83.9448
-305.819 -231.642 55.6243
-337.221 -147.473 95.1478
-328.724 -191.512 79.428
-331.648 -197.883 126.118
-290.549 21.9127 -160.841
-305.287 -21.6574 -131.116
-219.969 81.5394 -206.106
-268.101 56.3124 -187.249
-229.38 -105.543 -164.808
-247.676 -29.2213 -175.447
-198.489 -71.7911 -194.6
-2.83932 147.105 -297.035
-49.8982 133 -297.177
-37.8855 77.8591 -280.837
-42.8749 108.637 -293.075
-4.35001 95.1213 -290.941
-99.3097 122.5 -283.472
-141.875 116.666 -259.972
-117.934 -177.345 -151.412
-118.524 -120.781 -177.734
2.80399 -136.133 -146.518
-158.937 -97.7098 -201.739
-151.174 -107.855 -191.933
-167.073 -153.379 -177.06
-1.56864 34.6138 -253.373
-108.069 -21.9068 -229.759
-50.2006 23.618 -251.142
-141.608 66.6523 -233.02
[...]
POINT_DATA 642
SCALARS Mean_Curvature double 1
LOOKUP_TABLE default
0.00820717
0.00616243
0.00813083
0.0063419
0.0112267
0.00454159
0.0121597
0.00851819
0.00230774
0.007622
0.00434129
0.00747884
-0.00250117
0.00411291
0.00292816
0.0051729
-0.00400772
0.00404689
0.0034701
-0.00120795
0.0238259
0.00869328
0.00476738
0.000200487
0.0024769
0.0074069
0.00565463
0.00402435
0.0165568
0.0099467
0.0261384
0.0109574
0.00388995
0.00202229
0.00911523
0.00721646
-0.00389281
0.00806751
0.0257517
0.00434272
0.00652183
0.011289
0.0111112
0.00775705
0.0115545
0.00771347
0.00596417
0.00549405
0.00853311
0.00529679
0.00687433
0.0104125
0.00355742
0.00865637
0.000174411
0.00533334
0.0134093
0.0114889
0.00370646
-0.00175481
-0.00208271
0.00411635
0.00785831
0.00757679
0.00787055
0.0123745
0.00393433
0.00691835
0.0025904
0.0154664
0.0116897
0.00616081
0.0105916
0.0024271
0.00147268
-0.00137327
0.00132301
0.00542592
0.00543021
0.0044955
0.00499424
0.00736132
0.00639059
0.00741985
0.0103547
0.00985594
0.00398316
0.0067375
0.000702106
0.0081848
0.0159262
0.00461334
0.0052305
0.00722756
0.000978406
0.00692151
0.00933052
0.00488035
0.00137029
0.00494981
0.0305569
0.000126576
-0.0104978
0.0298097
-0.00850641
-0.000138974
0.0073808
0.00477342
0.0139207
0.00834239
0.0115477
0.0210813
0.00591544
0.0047532
0.00288064
0.00580203
0.00832284
0.00626523
0.00723337
0.00959677
0.0173039
0.008628
0.0179425
0.00951398
0.0148678
0.0127046
0.00726426
0.00409221
-0.0041675
0.019669
0.0267778
-0.00300078
-0.00324078
-0.0233569
-0.00193566
0.00665105
0.0053974
0.00411508
0.023326
0.00780069
0.00761575
0.00728394
0.0101163
0.00475864
0.00928679
0.00381809
0.00222295
0.00760451
0.00886736
0.00821046
0.00593673
0.00831253
0.00863327
0.038075
0.00527193
0.00730079
-0.00144741
-0.0319927
-0.00111932
-0.00303949
-0.00111687
0.00951999
0.00681205
0.0104823
0.0112171
0.00100621
0.011583
0.00223573
0.0113595
0.0108766
0.00650685
0.0061639
0.00673737
0.00651424
0.00636313
0.00747213
0.00740989
0.00299723
0.00629012
0.0035975
0.00116895
0.00205389
0.00909022
0.00633322
0.00820322
0.00839796
0.00297823
-0.00125807
0.00253723
0.000172097
0.00110009
0.00310648
0.0126332
0.006144
0.00978723
0.0142484
0.0114129
0.0131515
0.000971993
0.00344704
0.0038147
0.00213088
0.00667103
0.00715136
0.00452923
0.0025942
0.00281296
0.0116593
0.0100405
0.00364677
0.0133271
0.0123043
0.010742
0.0124634
0.0115647
0.000202519
0.00285629
0.00376143
0.00650227
0.00159897
0.00496774
0.0117263
0.00443925
0.00296369
0.00772157
0.00106161
0.00834443
0.00503744
0.00363297
-0.000224428
0.0108677
0.00915861
0.0081559
0.00725487
0.00916524
0.00400867
0.00567498
0.00784765
0.00665423
0.0064608
0.00391546
0.000373052
0.00624708
0.00626586
0.00699949
-0.00732403
-0.0124752
0.0270548
0.0141568
0.0277183
0.0213843
0.00537287
0.00823036
0.00144179
0.00547346
0.0170571
0.00711472
0.00609333
0.00584777
0.00697789
0.00853553
0.00818342
0.0214967
0.0288643
0.00953345
0.0166035
0.0134893
0.0110851
0.00891639
0.00976888
0.000226568
0.00808044
0.00826383
0.00057491
-0.00421345
0.00465348
0.0172078
-0.00120199
0.0116084
0.00345993
0.0361915
0.0240327
0.00477596
0.00542378
0.00198441
0.00356057
0.00170451
0.00054097
-0.00240621
0.0181696
0.0053298
0.00655068
0.00974125
0.0086594
0.00573548
0.0110652
-0.00314314
0.0096967
-0.00227679
0.00785489
0.00190925
0.0030418
-0.000653604
0.00234363
0.00722183
0.00547278
0.00582666
0.00694463
0.00808646
0.00470743
0.00790687
0.00459912
0.00673615
0.00731357
0.00615635
0.00344338
0.00206736
0.00150567
0.0118326
0.00852041
0.00549806
0.00924464
0.0112816
0.0126064
0.012277
0.0081074
0.00589586
0.00152312
0.00618595
-0.00136422
0.00783887
0.00594751
0.00104418
0.00562629
0.0084655
0.000329936
0.00271397
0.00697588
0.0102793
0.00771559
-0.00297122
0.00200792
0.00111962
0.00690976
0.005523
0.00667212
0.00174153
0.0106188
0.00316022
0.00692097
0.00159558
0.00656592
0.00710272
0.000684641
0.00988906
0.00246623
0.00682875
0.00800703
0.00663664
0.00912137
0.00620139
0.00680999
0.00884842
0.00450285
0.00536947
0.00765534
0.005787
0.00421146
0.00738642
0.0132872
0.00263875
0.00346275
0.00166244
0.00606245
0.00246138
0.00239
0.00444884
0.0104037
0.018833
0.00448157
0.0116966
0.00354495
0.0292894
0.0109718
0.00134656
-0.000725607
-0.00649635
0.0256463
-0.00891188
0.0391364
0.0027459
-0.015787
0.0159875
-0.00615023
0.0052268
0.0121165
0.00741497
0.00569767
0.00454883
0.00642387
0.022382
0.005474
-0.00425952
-0.00360332
0.0101835
0.0229413
0.0222493
0.0106027
0.0153648
0.00178063
0.00731476
0.0147173
0.00672752
0.0136289
0.0143339
0.0110255
0.028635
0.0115936
0.0100082
0.0122276
0.00860688
0.00956894
0.00515875
0.00818507
0.00429217
0.00413241
0.00688688
0.00546167
0.0125475
0.00520861
0.00964737
0.00547125
0.00490714
0.00337835
0.00656046
0.00179144
-0.000309785
0.00358754
0.00390141
0.00433422
0.0106035
0.0085993
0.0101503
0.00813888
0.00824191
0.00617402
0.0087341
0.014005
0.00868166
0.00514854
0.00502026
0.0052849
0.00799258
0.00978016
0.017541
0.0046851
0.00156468
0.0101746
0.00335993
0.0127749
0.0105924
0.00902144
0.0099953
0.00669828
0.010888
0.0066171
0.0124495
0.00861176
0.00242134
-0.00111534
0.0116764
0.000573127
0.0114703
0.00788837
0.0168694
0.020645
0.0239614
2.33336e-05
0.0331208
0.00268932
-0.00231507
-0.00663434
0.0348498
0.0150305
-0.00333608
0.0103669
0.0267084
-0.00333177
-0.00434759
0.0325543
-0.00766399
-0.00171535
0.0131498
-0.0212128
0.0146079
-0.00348444
0.0230123
-0.00473325
-0.00561907
0.0220926
-0.00174283
-0.00879147
0.00654136
0.00605267
0.00356428
0.00603486
0.0191321
0.0063303
0.00512845
0.00703351
0.00835507
0.00167847
0.00242852
0.0119097
0.0230914
0.0257673
0.00634334
0.038456
0.00743579
0.00671561
0.00563415
0.00634893
0.00423325
0.00421497
0.000710414
0.00436039
0.00777956
0.00715355
0.0064642
0.00742849
0.00806673
0.00452126
0.00841163
0.00895403
0.00681168
0.00253849
0.0073898
0.00836395
0.00741459
0.00645933
0.0109086
-0.00187367
0.00628693
0.00248021
0.00296905
0.0107536
0.00160256
0.00742468
-0.000398113
0.00841354
-0.00295328
0.0104836
0.00876594
-0.00306943
0.00431603
0.00355251
0.00689055
0.00833739
0.00624755
0.00856763
0.00636126
0.00319633
0.0110934
0.0120388
0.0125461
0.00721794
0.00215579
0.00296869
0.00456745
-0.000409471
0.00508608
0.00849116
0.00614578
0.00595344
0.00458081
0.0077796
0.0113462
0.0136001
0.00756727
0.0077031
0.0035515
0.00438757
0.00381142
0.0049312
0.00857926
0.00683485
0.00524238
0.00529312
0.00163888
0.0414977
-0.01424
0.0112969
0.0234909
0.00215658
0.0077173
0.00528308
0.00930601
0.0258542
0.00608504
0.00531378
0.00438737
0.00452742
0.00647521
0.0111462
0.00659469
0.00563313
0.00266184
0.00371894
0.00237261
0.00536527
0.00614761
-0.00241644
-0.0101091
0.0363106
0.0134061
0.0157659
0.0192723
0.00601085
0.0380938
0.0115787
0.00294259
0.00575813
0.000138488
-0.00574946
0.00437967
0.00226877
-0.000488569
0.00251127
0.00144701
0.01548
0.0153111
0.0361162
0.0139027
-0.00233441
0.00414746
-0.00367774
0.00202426
0.00909386
0.00748861
0.00450479
0.0122492
0.00538415
SCALARS CoVolArea double 1
LOOKUP_TABLE default
2811.27
2837.2
2163.06
2182.12
1885.66
1925.18
3336.53
2225.28
2465.59
1705.97
2568.49
1642.68
6040.7
2686.88
2175.42
2102.11
3386.72
3718.97
3935.83
2916.81
1668.76
3778.05
2658.62
5791.1
3044.66
2294.18
2908.15
3239.09
1804.26
2304.34
1363.82
2186.88
2966.06
3201.09
2658.5
2869.08
4622.79
858.448
734.823
2522.53
2772.86
2879.61
2757.75
2491.27
1434.28
1907.73
2958.37
2273.68
2380.53
3379.85
2249.21
2287.47
2042.34
2315.3
3772.49
1888.97
1985.1
1401.92
3067.53
4070.46
3888.44
3153.49
2641.18
3004.55
2572.33
2444.41
2306.7
2584.3
4179.45
1349.22
2473.9
2046.9
2232.78
2972.19
1074.93
5268.21
2822.66
2618.5
2856.16
2458.68
3212.52
1966.6
2580.56
1724.7
2084.53
1390.42
3068.09
3318.35
3812.94
3735.78
1850.75
2635.01
2779.65
2545.62
3119.18
2678.66
2085.66
2433.32
5023.43
3218.33
1214.68
2726.47
1439.01
1592.39
11607.8
4603.62
2536.9
1769.79
2064.39
1796.66
2400.77
1346.44
2484.84
2991.24
2672.32
2905.2
2804.6
2423.48
2780.71
2598.72
1689.72
1942.42
2008.45
2723.78
2461.03
2027.52
1914.5
2785.05
5019.68
1914.99
1726.68
5770.03
2773.07
7792.99
3095.01
2182.11
2312.72
1044.98
1457.51
2264.11
2407.09
2961.89
2033.11
2700.97
2550.66
2969.76
3066.91
3733.17
2696.27
2409.86
3035.98
2828.2
2836.99
1218.23
2389.6
2566.91
5110.76
2154.77
2936.7
5479.6
1315.68
2017.78
3163.45
1759.75
1861.23
3485.92
1840.22
3814.14
1473.31
1483.07
2236.77
1937.4
1968.67
2020.11
2642.99
1871.69
1927.5
3988.24
2223.82
3804.22
2775.79
2661.11
1974.8
2554.01
2448.33
2139.16
2624.47
3144.89
3441.93
4113.53
4136.32
3768.64
1698.7
2820.19
2020.04
1348.05
2261.38
1697.09
3319.39
2722.05
2693.23
2693.75
2618.1
2107.89
2731.83
3053.32
2952.19
1769.24
2106.04
3077.18
1620.84
2019.03
1431.5
1359.9
1783.41
3647.57
3243.46
3482.7
3701.35
4184.97
3046.88
2332.41
4164.35
3790.53
3571.16
3815.77
3289.47
3944.24
3827.87
4186.36
2136.14
2944.81
2578.48
2651.31
2516.83
3126.58
2722.02
2888.46
2955
2671.92
3259.24
3758.69
3683.08
3585.04
2441.16
4090.57
4210.56
2297.62
1136.43
1039.66
2015.64
2736.18
2757.73
4492.5
3662.12
2753.44
3166
4134.3
2246.48
1781.66
2618.1
2700.65
1907.16
1516.2
1998.45
1559.83
2804.52
3926.2
3692.12
3072.18
3810.91
1402.89
2268.26
3241.9
5204.41
2949.81
1729.61
2925.1
1628.84
3205.57
725.448
1080.79
2779.79
2176.27
5889.98
4141.29
3894.58
5107.95
5490.23
1417.03
3010.27
3315.95
1800.22
2722.3
2203.87
1433.06
4779.11
2430.94
4246.1
2032.28
2715.83
3253.79
3175.55
2813.78
2456.96
2553.38
1950.89
1743.15
1731.57
3465.79
1820.1
3176.36
1811.77
1766.54
2470.6
3597.77
3695.55
3858.32
1459.46
1494.79
2484.43
1653.11
1460.58
1368.56
2053.47
2367.76
2287.89
4485.3
2984.35
3322.6
2079.38
2562.28
2630.53
2703.8
2265.43
3231.73
3550.3
3400.71
1688.78
2243.63
3748.55
3464.36
4830.33
3527.66
2198.95
2343.45
3130.97
2287.46
3020.71
2523.13
3005.43
3140.64
2855.22
3413.68
2703.23
2727.49
3150.52
3336.82
2573.03
2175.02
2278.76
2594.35
2170.81
2783.7
2397.59
2108.38
2756.23
3053.48
2953.93
2567.34
3059.81
3231.01
3769.93
3154.68
2991.35
3650.87
3468.95
2358.33
1955.62
2196.72
1206.09
1223.79
1457.41
2492.58
3958.9
7217.32
9420.92
1838.91
1573.58
942.19
4070.75
5034.11
1881.7
5503.3
3907.04
4291.94
2737.8
2679.43
3837.06
3411.71
2379.48
3704.15
4106.96
3191.57
2215.43
1862.86
1093.98
1101.11
2270.88
3107.55
2259.24
1621.02
1987.62
2555.58
1662.94
1734.35
1371.59
1955.89
2393.78
3545.28
2891.81
3720.51
2465.54
2800.07
2917.47
3170.3
2757.68
2501.08
1974.22
2495.17
2577.05
2164.65
2834.26
2277.03
2872.29
3061.57
3532.96
2690.49
2740.32
3059.24
2463.02
2564.29
2221.74
2858.26
2686.63
2856.58
1738.16
1965.48
2184.29
3458.49
3057.05
3247
2898.75
2643.99
2150.52
2164.27
2662.06
2313.6
2911.99
2378.85
2575.94
2778.47
2694.08
2861.66
2710.51
2790.72
2604.46
2862.11
3231.16
2918.28
2224.45
2910.14
2214.01
2136.71
2257.65
2050.07
2008.32
2118.56
1689.17
2527.78
8098.65
1831.48
1066.84
1038.5
1541.48
2251.25
1542.91
1961.08
1302.01
1006.27
2427.96
8605.07
3670.01
6435.31
3802.17
3074.48
4117.48
978.296
1280.21
4270.01
3395.85
11428.4
8199.46
7938.77
2575.67
2410.07
1563.16
2031.74
2248.05
2239.52
2258.13
3485.13
1291
1900.34
929.434
1276.75
758.246
1016.3
2908.06
2645.11
2932.31
2477
2416.92
2486.35
2921.77
2579.65
2464.12
2258.39
2429.4
2518.26
2198.84
2692.38
2052.98
2034.59
2340.3
2863.55
2625.86
2944.17
2416.53
2500.13
2126.33
3016.07
2016.55
2352.29
2631.99
2082.24
3410.43
2334.35
3423.65
2935.27
3691.66
2736.38
2477.91
3770.42
2188.66
3163.75
2882.99
1901.07
2327.6
1722.39
2589.78
4023.33
1522.55
2086.95
1417.05
1861.39
2661.42
4537.29
3467.7
3836.49
3068.72
2819.05
2630.83
2928.39
3291.53
2610.57
2277.95
2186.01
2826.7
3051.46
3000.81
3202.18
2803.88
2800.27
2691.86
3372.63
3221.85
3538.35
1657.56
880.842
894.653
778.166
1727.08
2667.37
2500.79
2551.73
2141.16
1468.34
2967.6
2621.16
2721.11
2566.31
2671.94
2204.43
2736.93
2537.59
2768.07
3724.64
3480.55
2819.76
3315.2
5880.1
2145.26
3966.14
1114.19
2288.02
1875.06
2188.77
1279.33
1101.03
2477.73
5136.13
4875.1
6023.94
2918.42
4520.94
4953.57
4079.37
5458.15
1562.18
1000.32
735.87
1474.99
2506.98
2746.87
4899.74
3034.05
1841.27
1309.45
3191.37
1598.89
3503.97
SCALARS SignedDistance double 1
LOOKUP_TABLE default
100.017
112.65
99.9206
99.057
89.4325
111.46
211.945
79.0331
97.6096
108.382
95.0898
102.516
113.607
106.258
109.726
110.793
100.301
94.4151
91
115.583
94.4761
107.906
107.853
115.711
99.2674
97.8892
97.3685
95.6474
130.353
116.415
100.896
121.249
101.025
102.478
80.5637
78.2025
150.114
127.327
125.715
107.037
101.17
110.193
112.46
112.087
96.3349
101.738
107.368
107.692
106.785
108.554
106.387
102.443
97.5236
106.137
109.167
97.1158
101.621
100.689
98.3614
104.987
111.927
97.5983
80.7801
87.8399
81.8966
95.9077
100.545
83.7959
92.3558
92.6658
75.6369
90.1128
112.041
105.75
107.652
116.545
107.346
117.969
123.497
109.591
110.468
111.441
109.64
105.462
98.9257
100.115
98.2126
99.0834
93.9817
94.821
94.501
103.01
99.4254
95.1062
104.596
90.8843
93.9455
96.2359
105.998
97.8108
108.84
107.806
127.754
131.295
177.502
99.1244
85.3025
105.242
94.5421
94.5363
77.9068
98.113
96.3984
93.2972
94.0371
102.021
100.037
105.534
75.0757
89.0862
97.6837
110.312
127.638
71.7593
82.9055
130.273
114.965
94.8829
126.997
122.879
127.938
135.833
127.058
202.602
135.914
99.0247
98.0781
124.14
121.051
97.4648
97.785
99.3358
99.3183
110.98
105.08
110.669
112.124
96.8271
101.754
103.408
88.3885
83.0124
93.4562
126.897
98.8214
95.6269
104.949
137.446
104.902
123.25
109.859
115.75
105.221
99.215
93.6738
118.45
107.676
119.554
101.363
102.452
108.706
102.327
104.779
104.989
105.176
104.118
102.687
110.259
106.918
111.07
115.838
115.709
107.621
105.119
105.014
104.317
107.631
113.624
111.153
112.123
111.808
108.622
92.5923
93.4905
104.347
98.2319
101.904
97.6155
99.907
115.9
107.26
111.217
105.93
106.502
105.928
110.047
98.0354
94.9479
99.62
100.903
95.8819
100.351
103.839
98.3884
102.734
107.585
110.679
102.821
93.7065
104.816
103.895
94.0061
95.4824
92.9048
89.1106
115.433
96.9067
91.3614
95.87
103.085
92.7436
102.703
78.387
81.0675
78.4476
87.5363
84.7491
84.1281
86.2822
85.927
88.5195
99.5654
90.5442
91.5978
114.31
110.429
106.528
118.666
96.9666
101.734
92.2212
81.6141
78.52
97.5925
81.7924
99.4541
81.0345
87.5714
89.0295
85.8842
91.4525
70.9273
83.5994
94.4471
96.9256
89.4942
94.0658
104.156
91.7329
77.8955
117.38
100.364
104.643
119.836
119.137
98.35
102.555
109.668
106.239
110.039
108.147
105.393
107.833
106.319
110.557
109.641
109.344
111.969
115.361
112.114
115.415
119.967
105.603
120.338
112.424
107.623
119.941
113.589
119.439
109.647
116.005
112.107
114.404
110.254
107.267
107.925
109.728
108.158
106.297
113.758
109.459
114.483
106.004
107.288
108.258
111.723
113.784
115.807
101.884
104.459
105.176
101.889
97.0911
97.5994
94.9656
100.559
100.737
100.268
98.6343
101.857
100.076
102.995
91.5028
92.5928
89.8768
102.07
94.6191
101.667
98.5877
99.2104
99.7835
104.051
103.792
100.961
104.546
101.597
105.611
106.859
98.4168
98.8274
102.147
92.3563
96.4908
102.432
98.1192
100.681
101.612
106.39
92.611
93.8961
97.0689
95.1764
92.7749
93.8629
95.7079
94.3522
95.9701
105.478
101.025
100.589
97.5299
96.0119
114.957
100.343
99.8619
98.0846
103.08
89.4398
102.141
119.232
109.216
111.711
105.038
105.871
145.399
139.472
195.622
125.98
126.737
129.194
137.827
142.646
150.662
118.85
148.662
121.593
80.6154
82.4626
97.8884
83.5273
108.062
86.0214
107.414
118.935
112.351
97.0489
103.688
100.931
109.947
113.65
94.7959
91.6801
95.3908
91.6981
88.3552
98.4513
102.431
83.4656
77.8238
100.321
77.7468
84.6195
96.2943
94.6368
97.1263
98.343
93.654
98.3869
95.7517
91.58
92.2444
105.168
104.023
109.586
99.6756
104.33
103.993
102.41
103.027
100.868
79.5588
79.1029
89.4073
83.4019
78.9159
76.7759
101.689
93.2267
99.7087
95.4562
95.1303
92.5052
109.252
114.447
97.6358
100.936
129.769
117.767
124.287
77.7739
70.6427
84.6585
69.7096
74.2801
71.3935
83.4039
119.477
113.866
97.4829
128.597
122.819
135.161
91.0542
103.691
100.546
108.767
111.91
115.024
124.801
106.792
138.192
126.084
127.296
126.976
128.195
114.357
127.025
130.383
128.955
129.299
127.736
148.827
151.088
198.672
171.516
126.724
143.542
125.261
127.515
155.834
133.755
199.112
167.039
153.575
100.883
99.363
117.911
104.913
99.7448
98.2712
97.0424
131.024
126.945
112.232
123.412
122.547
123.786
125.733
95.3321
98.2174
97.9236
99.2541
100.209
103.154
103.668
102.706
99.1577
105.242
100.772
98.0296
97.0814
101.96
97.8107
96.5629
99.4594
101.93
99.8534
105.206
104.379
110.046
101.196
108.721
111.094
111.283
107.395
105.484
115.655
111.21
113.562
109.127
111.765
108.181
97.149
101.457
101.952
96.1259
106.094
103.588
104.913
103.29
101.585
102.037
104.033
98.2941
100.34
105.491
108.092
103.271
106.07
105.837
93.0297
86.0525
88.8409
92.2452
94.105
78.6892
97.1246
87.4406
76.0381
78.4308
98.0641
97.1943
100.368
104.24
95.3024
86.4242
92.0328
90.9801
133.609
127.958
125.774
127.664
123.899
101.611
94.9532
97.1126
110.825
123.931
95.9878
98.903
97.9228
97.3763
96.2693
112.098
96.6638
102.158
98.7939
102.205
103.242
98.8479
112.769
129.638
159.853
151.724
126.238
122.643
103.205
109.144
104.693
109.315
117.766
112.553
144.898
114.186
113.124
117.21
115.963
115.369
116.191
106.301
107.836
110.528
108.471
116.563
123.191
122.075
122.467
109.937
105.014
117.152
114.677
121.179
