# vtk DataFile Version 4.2
vtk output
ASCII
DATASET POLYDATA
POINTS 642 double
-199.106 299.049 91.033
189.563 287.461 81.1236
-211.592 -357.684 118.915
199.29 -351.578 122.648
-3.94346 -301.475 475.82
-5.28523 119.581 413.384
0.993119 -210.872 -156.827
-2.26859 204.724 -282.027
333.022 18.739 -114.44
282.559 -49.2436 294.557
-349.061 20.7515 -118.071
-302.602 -51.6115 297.556
-257.936 153.019 181.311
-173.329 51.2793 393.84
-116.494 271.179 244.949
104.493 268.573 243.058
-0.183229 346.948 78.1956
123.922 290.139 -129.408
-125.915 296.732 -132.54
-220.143 114.232 -225.849
-376.243 194.53 -63.6154
-362.896 -34.6252 62.5565
167.47 47.5986 385.94
249.304 134.907 180.575
-175.754 -213.079 425.463
-2.44181 -41.6866 485.567
-304.311 -224.409 -15.0746
-301.454 -242.798 222.721
-5.19921 45.293 -289.115
-195.794 -140.182 -192.826
355.507 187.17 -61.0627
214.759 113.814 -227.527
285.403 -238.049 217.704
162.122 -209.941 418.279
114.866 -400.135 336.992
-120.829 -403.845 341.487
-2.46318 -396.225 190.446
-158.046 -304.112 -68.0252
147.676 -304.7 -68.4193
190.268 -140.435 -184.523
292.752 -218.672 -17.698
351.112 -31.4961 56.5723
-243.37 244.928 130.339
-195.923 241.468 217.138
-160.218 307.35 176.94
-249.425 5.99371 355.564
-236.955 90.4423 309.033
-294.218 35.997 262.094
-60.6258 208.821 333.285
-135.636 171.269 330.49
-76.6216 91.9329 424.434
-82.8516 330.997 174.517
-103.644 345.272 90.7546
51.3028 207.92 330.99
-0.816715 269.042 260.647
94.4933 343.75 86.7381
71.8091 330.562 175.324
146.302 300.904 174.747
-65.5081 344.38 -21.7677
-193.196 291.802 -33.8168
185.579 285.924 -29.1407
59.8779 343.416 -18.1706
-67.1187 266.763 -221.507
-3.25842 317.969 -145.517
59.715 264.456 -219.897
-288.997 257.96 -94.8408
-314.796 241.176 -39.5019
-105.639 164.57 -282.781
-190.707 222.067 -195.639
-391.407 117.695 -100.365
-330.542 164.087 -166.525
-314.259 87.0232 -184.242
-351.73 176.16 9.42925
-371.381 16.6539 -40.9364
-392.655 119.592 -40.3274
-329.649 75.5156 91.9759
-336.903 -63.8823 200.112
176.834 233.301 215.254
227.376 236.656 112.475
66.6022 90.5834 417.708
127.194 166.398 326.187
277.295 37.0083 259.257
226.623 86.2219 303.491
237 2.29384 350.208
-79.5577 16.9011 465.858
-5.48713 46.6554 467.379
-254.247 -115.918 362.127
-192.861 -46.2697 415.775
-1.91951 -194.193 479.716
-92.6788 -137.678 471.123
-106.635 -255.886 472.124
-348.456 -148.459 157.43
-315.312 -147.272 264.175
-334.689 -118.593 -70.5501
-352.505 -128.141 30.6382
-268.967 -314.951 171.824
-326.397 -245.068 105.8
-270.984 -298.775 54.3032
-219.497 5.24378 -216.14
-281.077 -71.4343 -159.483
-3.00401 112.505 -317.615
-91.5031 99.2422 -292.775
-153.358 -172.506 -183.36
-124.369 -49.4542 -238.613
5.43786 -42.2879 -208.138
182.472 213.388 -189.467
99.6329 161.826 -279.686
296.404 236.61 -33.7418
273.082 254.802 -93.2372
302.338 80.4135 -179.231
314.421 160.675 -159.561
371.045 108.646 -95.4806
254.744 -307.373 171.999
205.18 -328.771 291.6
150.063 -386.976 250.785
242.426 -106.722 355.809
238.184 -225.313 335.732
298.865 -144.679 256.648
56.3707 -366.385 426.607
152.321 -307.11 407.132
97.3322 -254.755 468.121
53.4574 -433.476 271.211
108.069 -389.704 148.17
-63.6513 -369.552 430.584
-3.42493 -436.787 357.772
-115.882 -390.486 152.285
-59.7796 -435.686 272.407
-159.429 -393.267 252.148
124.777 -342.165 36.0165
168.688 -339.436 12.35
-176.777 -344.783 15.7973
-129.086 -340.028 36.8759
126.675 -251.781 -121.722
1.10459 -247.655 -71.9848
-130.013 -250.179 -121.12
222.461 -280.197 -52.5748
258.946 -291.588 50.1521
135.848 -173.908 -184.562
166.683 -239.757 -142.759
324.516 -115.953 -67.5434
257.392 -185.474 -114.754
274.787 -70.8649 -153.702
308.836 -239.768 104.41
356.51 9.42051 -34.6999
342.609 -121.38 18.609
325.694 -147.583 160.745
316.764 -64.4395 193.942
82.67 -137.179 468.901
185.712 -47.0854 410.41
69.4906 15.3646 458.811
-219.701 -334.078 296.689
-163.899 -310.395 411.929
-254.037 -227.328 344.451
-173.965 -241.042 -146.101
-229.187 -283.881 -53.985
-265.77 -187.399 -118.354
216.324 9.62583 -205.341
112.067 -56.7318 -237.577
84.1019 104.33 -290.631
313.072 64.4396 89.0048
368.526 109.518 -40.2608
329.334 173.192 9.00329
-224.59 274.492 110.57
-201.338 282.741 161.635
-178 310.211 140.321
-223.996 207.378 201.696
-217.662 249.928 181.445
-251.843 214.212 145.207
-140.302 296.593 209.132
-181.496 277.135 198.617
-158.499 261.831 232.395
-278.314 -22.0182 328.604
-276.198 21.7142 310.89
-301.317 -6.88524 281.492
-212.956 70.6012 352.698
-245.401 48.9086 335.681
-216.914 29.6423 375.599
-282.466 80.267 233.544
-267.699 64.9506 288.575
-250.152 116.017 255.773
-31.179 163.428 369.233
-66.3201 147.467 376.324
-42.1644 107.03 423.655
-122.56 225.633 291.357
-97.4466 195.598 333.462
-87.0314 238.412 295.581
-120.71 72.5607 412.712
-108.879 127.502 372.999
-155.949 102.815 367.054
-209.997 166.488 257.926
-186.746 130.32 319.924
-164.939 207.621 274.069
-138.862 331.296 140.664
-151.553 328.762 95.8606
-104.362 309.255 207.841
-120.529 324.388 178.433
-67.342 354.231 82.2722
-96.5288 342.785 136.016
-50.4842 341.627 129.184
22.453 164.086 368.679
-3.54752 208.437 334.449
60.3451 271.038 253.765
29.2378 239.372 302.016
76.7754 236.689 292.07
-36.2702 238.676 303.067
-69.9636 270.538 257.421
136.594 323.338 89.8442
125.841 326.214 137.816
163.957 302.19 137.727
44.9418 343.21 129.819
84.5315 341.375 133.771
61.4225 353.458 82.6074
126.996 291.775 206.834
108.098 320.183 177.513
91.1566 307.35 207.107
-44.4787 304.815 210.75
40.4555 306.523 211.684
0.567807 326.872 173.579
-133.447 335.081 37.938
-194.653 294.328 24.2696
-41.0604 354.317 31.9081
-85.166 352.622 36.7319
-160.034 297.71 -81.1765
-112.72 332.155 -22.5555
-92.9892 328.644 -80.679
188.963 287.2 18.521
125.607 332.079 35.5282
86.4564 323.571 -77.7691
109.181 328.957 -17.9513
159.951 288.234 -82.4284
79.7656 350.713 38.6448
36.6679 356.199 32.784
-34.6634 239.45 -255.945
-2.54124 269.434 -226.236
29.0814 238.679 -255.415
-62.529 312.205 -142.071
-34.7123 295.422 -185.72
-96.7638 286.378 -180.796
88.8459 282.402 -178.073
28.3887 294.452 -185.378
55.0986 309.402 -141.594
-3.32188 345.889 -23.3216
27.26 334.766 -87.3046
-35.0614 336.323 -87.7023
-268.559 268.23 -47.4491
-251.099 251.511 4.88714
-217.554 259.536 -103.523
-258.437 276.567 -68.4243
-346.365 223.192 -49.4411
-305.976 256.711 -62.0453
-337.445 235.249 -79.8814
-53.9554 187.498 -286.307
-87.1564 221.963 -257.666
-209.904 167.205 -217.281
-139.432 197.34 -249.467
-154.772 139.264 -271.628
-120.174 248.541 -218.588
-161.254 261.866 -170.997
-373.726 82.988 -113.444
-357.019 104.486 -148.548
-338.244 57.7641 -154.478
-360.946 183.523 -114.217
-369.693 138.915 -139.138
-397.161 151.19 -83.1381
-285.334 105.248 -204.993
-328.593 124.599 -181.468
-295.651 141.775 -200.19
-253.932 239.338 -151.794
-278.713 197.296 -179.991
-311.908 219.236 -135.961
-274.852 224.899 36.8391
-366.569 188.586 -29.5139
-339.972 208.992 -13.4344
-292.162 195.463 54.6506
-302.103 162.77 70.639
-365.866 19.6339 -78.1906
-391.811 88.2832 -71.9538
-374.062 72.5387 -9.59285
-388.617 90.2361 -44.4749
-368.37 -1.38809 8.70551
-402.716 120.91 -62.2556
-397.781 145.94 -49.7669
-317.794 -8.91582 237.091
-322.152 -55.3677 252.477
-304.029 99.4315 137.768
-309.912 41.1635 204.369
-349.003 -57.6021 136.142
-330.687 -4.39153 169.931
-348.769 22.7589 67.8015
-380.543 145.804 -11.8521
-370.654 112.718 6.50862
-352.819 135.803 30.0047
184.8 274.993 157.395
214.403 262.705 96.8177
143.64 256.014 229.669
165.432 271.041 194.687
235.24 197.491 130.45
197.479 245.208 176.048
204.718 191.214 202.421
30.7729 106.697 420.128
57.0429 147.954 372.514
148.979 100.43 360.176
101.725 126.897 366.806
114.262 70.6676 403.141
88.5169 192.691 329.684
111.915 221.227 288.296
281.784 -4.59155 279.005
261.345 20.2345 306.043
262.167 -21.2056 325.492
240.494 105.885 255.858
254.798 63.0617 283.328
267.604 76.1712 233.551
206.545 25.0462 369.678
233.608 45.9492 329.224
202.896 67.2786 346.026
153.779 199.303 272.666
177.874 125.11 315.935
197.739 154.332 261.043
-42.6881 71.3697 451.736
-5.78731 82.6268 445.749
-122.189 35.4871 433.989
-79.7651 53.886 449.536
-5.38345 8.56174 481.145
-44.3228 31.4627 471.931
-43.9846 -7.26205 482.188
-285.356 -75.8545 329.812
-257.539 -46.8974 360.515
-186.626 -125.915 415.631
-227.135 -78.7254 391.488
-217.658 -165.779 388.429
-224.285 -19.2166 388.21
-186.614 4.78686 407.669
-2.23395 -255.141 478.807
-60.3996 -235.687 479.533
-55.0188 -281.432 476.364
-44.9133 -81.761 479.713
-54.919 -164.306 478.705
-0.892245 -108.236 485.943
-140.608 -239.324 454.779
-102.108 -216.054 470.456
-130.077 -190.702 450.228
-134.196 -15.1613 441.209
-136.471 -88.3439 446.459
-84.8595 -43.9086 471.04
-333.134 -101.333 230.969
-313.173 -96.4674 280.94
-353.921 -100.878 122.057
-349.411 -104.889 181.116
-309.474 -196.941 246.738
-337.143 -145.13 209.962
-330.616 -194.828 184.792
-342.412 -57.6663 -93.4609
-358.608 -62.4832 -51.748
-331.643 -177.019 8.62654
-350.217 -121.995 -27.8183
-318.979 -169.51 -46.5478
-365.448 -72.5886 -6.58518
-364.873 -85.6197 49.0045
-243.259 -339.6 145.571
-276.598 -310.68 110.985
-244.759 -330.919 87.3069
-320.38 -246.775 155.496
-303.313 -280.588 134.239
-288.278 -281.875 197.307
-290.763 -263.447 18.7858
-302.69 -274.909 81.2848
-318.88 -238.761 51.9779
-353.627 -149.604 95.371
-343.641 -196.225 77.0345
-345.911 -202.01 127.547
-299.733 17.9325 -172.574
-316.166 -25.5402 -140.873
-226.569 79.5997 -222.654
-275.038 53.3634 -200.697
-237.943 -109.943 -177.357
-255.663 -32.6206 -188.281
-205.642 -75.4846 -208.181
-2.55575 151.134 -308.422
-52.4213 135.03 -310.299
-40.5265 71.2822 -296.456
-46.0453 103.952 -308.496
-3.84879 88.2323 -306.447
-104.667 121.175 -297.624
-149.194 112.694 -273.756
-115.494 -185.736 -168.398
-114.599 -129.204 -195.189
2.46209 -142.155 -165.859
-159.678 -104.707 -218.662
-145.758 -116.462 -208.969
-165.162 -161.507 -194.59
-2.53391 21.3197 -268.401
-100.514 -33.8491 -239.119
-50.4017 13.9134 -267.846
-148.092 62.4017 -248.288
-90.2209 22.6765 -265.609
[...]
POINT_DATA 642
SCALARS Mean_Curvature double 1
LOOKUP_TABLE default
0.00734954
0.00510071
0.00736427
0.00628629
0.0117074
0.00469097
0.0268488
0.00814997
0.00232305
0.00716974
0.00429448
0.00703434
-0.00253282
0.00405353
0.00363713
0.00507159
-0.00356009
0.00401796
0.00377922
0.00111065
0.019676
0.00767507
0.00460561
8.61535e-05
0.00289175
0.00637052
0.00527182
0.00378286
0.013794
0.00591742
0.0211341
0.0104588
0.00383356
0.00238681
0.00722459
0.00626574
-0.00315008
0.0146693
0.0247761
0.00396383
0.00589453
0.0101979
0.00847169
0.00665132
0.0101922
0.00707754
0.00548075
0.00531139
0.00790139
0.00480936
0.00645909
0.00968228
0.00366593
0.00779929
0.000280227
0.00542407
0.0118811
0.0101605
0.00393407
-0.00159226
-0.00161839
0.00400215
0.0072951
0.00713431
0.00729096
0.0105543
0.0044109
0.00557446
0.00225667
0.014571
0.00941995
0.00551573
0.00973981
0.00265083
0.00566348
-0.0013306
0.00158053
0.00541837
0.00602757
0.00445239
0.00457989
0.00682237
0.00587898
0.00688589
0.0094306
0.00903152
0.00350287
0.00618864
0.000698782
0.00674277
0.0145435
0.00441933
0.00486723
0.00663443
0.00103865
0.0060979
0.00855935
0.00473777
0.00134615
0.0047909
0.0254105
0.00179363
-0.00508576
0.0220827
-0.00747452
-0.000333149
0.00560378
0.00490156
0.0106463
0.00825968
0.00997363
0.0157359
0.00543782
0.00449017
0.00251268
0.00531351
0.00755027
0.00568696
0.00688353
0.00850849
0.0152309
0.00818982
0.0139273
0.00867391
0.0113303
0.0112562
0.00814746
0.00397546
-0.00390881
0.012141
0.0173382
-0.00313589
-0.00315448
-0.0211097
-0.00230858
0.00665602
0.00503971
0.00962561
0.0159239
0.0070391
0.00690659
0.00655342
0.00893309
0.00397794
0.00791918
0.00415042
0.00219283
0.00660884
0.00809731
0.00760756
0.00546839
0.00749626
0.00720481
0.024302
0.00539669
0.00674357
-0.000995247
0.0314826
0.000816165
-0.00291453
0.00162128
0.00903525
0.00648289
0.0092454
0.00989026
0.00224969
0.010111
0.00360879
0.0100294
0.00987863
0.00590068
0.00584217
0.00636288
0.00609035
0.00595096
0.0069207
0.00684243
0.00302196
0.00594005
0.00340703
0.00117991
0.00240669
0.00807109
0.00555374
0.0072952
0.00722786
0.0031169
-0.000584043
0.00243895
0.000190124
0.00142347
0.00298946
0.0109629
0.00563207
0.00923742
0.0120948
0.0110037
0.0115405
0.00106002
0.00310821
0.0036752
0.00243569
0.00614744
0.00620753
0.00434821
0.00267865
0.00284938
0.0102078
0.00883642
0.00396997
0.0109104
0.0113014
0.00966705
0.0108417
0.0100849
0.000697025
0.00367825
0.00315721
0.00590223
0.00150088
0.00527113
0.00984763
0.00370465
0.00277891
0.00690764
0.00125944
0.00746763
0.00474135
0.00344841
-0.000705165
0.00927899
0.00860053
0.00750551
0.00682386
0.00831516
0.0040202
0.00552605
0.00720383
0.0061894
0.00627671
0.00393793
0.000944805
0.00573514
0.00591321
0.00840602
-0.00656254
-0.00980686
0.020941
0.0147088
0.0231262
0.016624
0.00532707
0.00757652
0.000161812
0.00534739
0.0126545
0.0065847
0.00533949
0.00505797
0.00754502
0.0075612
0.00690834
0.0176543
0.0204026
0.00857335
0.0160216
0.0123261
0.0102322
0.00829651
0.00843002
0.000206294
0.00812223
0.00761943
0.000820342
-0.00393086
0.00384333
0.0131413
-0.000205281
0.00999539
0.00256958
0.0320227
0.0208352
0.00469315
0.00531932
0.00145311
0.00330717
0.00175249
0.000780433
-0.00209606
0.0153064
0.00520668
0.00682896
0.00856783
0.00718291
0.00523942
0.00990643
-0.00275399
0.00874419
-0.00160164
0.00711228
0.00208027
0.00288503
-5.76209e-05
0.00245764
0.00660337
0.00497125
0.00563299
0.00649213
0.00743277
0.00442662
0.00717596
0.0044602
0.00629688
0.00673748
0.00577852
0.00318054
0.00224888
0.00156964
0.0104464
0.00805818
0.00513552
0.00850256
0.0101204
0.0110768
0.0107919
0.00753348
0.0056817
0.00124941
0.00583503
-0.000686232
0.0071981
0.005569
0.00153948
0.00534339
0.00836213
0.00146942
0.00253819
0.00596028
0.0109854
0.00753443
-0.00232656
0.00237235
0.00154816
0.00602897
0.00554375
0.00618647
0.00170528
0.0100983
0.00309378
0.00593924
0.0023928
0.00567216
0.0060604
0.000936804
0.00885642
0.00279198
0.00668035
0.00714662
0.00614892
0.00844629
0.00618464
0.00640215
0.00804267
0.00426684
0.00504173
0.0070388
0.00543776
0.00451072
0.00710625
0.011249
0.0029763
0.00302785
0.00257222
0.00540963
0.00281446
0.00207407
0.0038904
0.00752328
0.0142902
0.00397196
0.013176
0.00493021
0.0229209
0.0124578
0.00117072
-0.000451834
-0.00674315
0.0175152
-0.00145177
0.0284917
0.000906384
-0.00770467
0.0132673
-0.00575691
0.00338174
0.00918661
0.00694958
0.00559234
0.00375786
0.0060158
0.0156087
0.00536857
-0.00354974
-0.00242098
0.00952897
0.0179346
0.0202981
0.0120467
0.0126992
0.00442449
0.00657185
0.0135013
0.00667653
0.0118721
0.0126245
0.0106579
0.0214695
0.0103311
0.00777052
0.0104294
0.0077934
0.00864324
0.00476033
0.00745573
0.00433152
0.00414543
0.00603082
0.00519319
0.0125192
0.00458568
0.00905311
0.00524694
0.00443984
0.00372525
0.00605347
0.00222805
-0.000237586
0.00345797
0.00381573
0.00430059
0.00935367
0.00714207
0.00927649
0.0075018
0.00746194
0.00592089
0.00946961
0.0122512
0.00846705
0.00477087
0.00475687
0.00540789
0.00584252
0.00638876
0.0147261
0.00457069
0.00331185
0.00812205
0.00384765
0.0108903
0.00958804
0.00757624
0.0092917
0.00650619
0.00993909
0.00610688
0.00871777
0.00622144
0.00213165
-0.000181361
0.0103484
0.00204202
0.0107289
0.00675238
0.0134996
0.0177844
0.0208284
0.00303134
0.0207751
0.00208985
-0.00234184
0.00248222
0.0249484
0.0188583
0.00113777
0.00677336
0.0200934
-0.00123555
0.0062089
0.0255554
-0.00291423
-0.00175793
0.00264744
-0.019779
0.0041742
-0.00344436
0.0215488
0.00179327
-0.0023472
0.0210276
-0.00241353
-0.00851764
0.00678816
0.00634053
0.00367924
0.0058617
0.0120136
0.00481165
0.00497361
0.00663016
0.00756582
0.00133333
0.00364424
0.00851174
0.0199596
0.0172614
0.0135919
0.0262109
0.0065536
0.00628018
0.00476924
0.00596358
0.00418852
0.00403631
0.00129831
0.0042205
0.00715935
0.00541223
0.00618387
0.00702255
0.00747946
0.00422431
0.00760711
0.00799116
0.00625425
0.00211396
0.00655204
0.00777365
0.00722884
0.00468796
0.00972549
-0.000680897
0.00647591
0.00257457
0.00300538
0.00912616
0.00166761
0.00714661
-0.000171529
0.00768348
-0.00232384
0.00986768
0.00835325
-0.00265803
0.00506563
0.00304915
0.00710649
0.00769087
0.00597565
0.00783433
0.00602358
0.00291349
0.00997091
0.0106148
0.0110801
0.00686329
0.00247583
0.0029044
0.00429482
-2.33499e-05
0.00478596
0.00795022
0.00557509
0.00549794
0.00446652
0.00679762
0.0108368
0.0109104
0.00700377
0.0071314
0.0031157
0.00441396
0.0039557
0.00569787
0.00729959
0.00648068
0.00523235
0.00503701
0.000959931
0.0300024
-0.000452545
0.0190628
0.0152267
0.00229536
0.00701972
0.00527006
0.0055532
0.0175163
0.00575726
0.00524885
0.0042932
0.00438574
0.0060146
0.00704333
0.00647835
0.00483001
0.00277026
0.00363437
0.00247411
0.00511021
0.00516142
-0.00106122
0.0113439
-0.0217856
0.0125668
0.0112328
0.0144187
0.00966843
0.0281032
0.0136571
0.00304503
0.00531137
0.000563723
-0.00542325
0.00424973
0.00225493
-0.000303173
0.00258031
0.00109106
0.012734
0.0162917
0.030235
0.0112391
-0.000595357
0.00381163
-0.00318765
0.00207221
0.00811296
0.00752777
0.00427474
0.0112854
0.00545445
SCALARS CoVolArea double 1
LOOKUP_TABLE default
3012.12
3046.56
2389.07
2374.19
2121
2092.97
3900.41
2445.22
2646.01
1879.41
2767.58
1835.59
6011.66
2896.61
2420.49
2348.47
3575.73
3932.93
4111.84
3226.11
2110.56
4060.84
2859.28
5784.4
3204.42
2583.05
3134.23
3450.31
2014.3
2704.42
1772.32
2574.66
3178.36
3353.73
2996.24
3195.9
4536.11
1095.78
1025.99
2815.72
2989.23
3164.09
3053.4
2719.33
1716.61
2147.59
3184.06
2485.69
2615.38
3587.43
2455.09
2551.61
2318.96
2559.03
3903.64
2156.5
2273.62
1675.96
3314.54
4303.31
4079.68
3417.44
2910.31
3275.4
2837.64
2804.81
2448.4
2939.04
4481.35
1687.69
2853.21
2285.59
2463.97
3261.57
1276.89
5402.8
2995.83
2834.46
3106.95
2640.52
3421.16
2183.51
2815.27
1960.03
2367.27
1653.61
3281.07
3558.11
3976.94
3983.75
2159.84
2886.03
3002.01
2807.79
3362.17
2946.26
2379.93
2652
5190.56
3426.41
1591.26
2902.23
1490.56
2168.42
10526.3
4817.33
2911.28
1956.7
2448.25
2037.97
2752.31
1705.24
2749.02
3249.6
2915.48
3123.94
3064.81
2653.5
3068.28
2910.33
1996.32
2248.44
2446.22
3022.59
2867.62
2428.87
2217.33
3029.46
4840.73
2339.2
2173.4
5520.25
2797.83
7490.61
3101.22
2455.98
2542.6
1227
1869.65
2524.9
2666.32
3193.62
2323.65
3009.56
2815.38
3171.98
3217.11
3957.53
2968.74
2662.98
3306.99
3147.95
3114.46
1677.75
2693.45
2816.46
5198.27
2263.39
3059.96
5551.69
1503
2224.45
3405.04
2066.56
2155.15
3657.54
2093.03
3898.32
1721.34
1740.16
2489.27
2167.76
2200.39
2240.53
2869.51
2109.56
2162.34
4135.22
2444.63
3993.21
2964.26
2874.49
2202.34
2818.68
2690.7
2386.83
2794.96
3301.16
3609.73
4323.66
4337.5
3994.77
1990.54
3072.93
2265.54
1630.38
2497.48
1973.01
3524.92
2922.47
2906.71
2906.8
2837.91
2350.45
2943.51
3243.03
3178.57
2049.49
2391.67
3300.92
1907.97
2272.64
1677.48
1646.31
2045.78
3832.4
3454.18
3747.19
3923.46
4366.78
3275.91
2606.1
4336.65
4007.71
3819.64
4001.22
3511.76
4154.62
4023.75
4339.5
2419.6
3196.22
2843.62
2920.7
2783.08
3394.24
2972.21
3136.73
3188.82
2921.56
3505.98
3990.84
3955.99
3860.77
2691.84
4181.92
4348.95
2625.93
1435.77
1379.48
2460.41
3023.82
3021.63
4787.3
3926.07
3121.98
3434.69
4337.04
2491.78
2049.22
2846.02
3146.42
2297.18
1951.42
2231.35
1879.46
3143.41
4216.78
4070.74
3480.81
3961.73
1733.69
2476.03
3436.99
5211.66
3210.03
2039.94
3140.54
1907.03
3519.46
1031.61
1448.74
2967.59
2386.6
5999.38
4327.81
4044.94
5177.72
5534.87
1715.58
3168.35
3571.95
2102.22
3022.45
2448.75
1678.88
4726.77
2623.44
4340.96
2254.47
2921.98
3433.19
3321.44
2964.56
2684.85
2802.92
2165.01
1977.8
1961.2
3658.26
2053.51
3377.51
2038.06
2000.77
2699.84
3827.65
3921.17
4078.67
1717.76
1732.5
2730.17
1900.97
1740.54
1644.57
2353.04
2612.08
2534.34
4625.65
3210.94
3477.93
2332.12
2811.76
2832.47
2921.48
2548.63
3502.94
3772.77
3639.22
1923.77
2480.54
3889.6
3728.39
5033.68
3820.53
2429.03
2575.96
3365.97
2512.06
3213.47
2757.31
3243
3403.14
3141.68
3618.63
2951.02
2934.36
3414.59
3612.23
2822.56
2435.56
2509.57
2865.66
2440.42
3025.06
2630.7
2359.36
3006.12
3321.6
3242.95
2879.53
3281.32
3473.23
3901.45
3343.21
3187.25
3843.8
3799.92
2723.55
2369.51
2416.22
1500.41
1443.93
1849.76
2756.83
4153.66
6605.8
9177.08
2318.66
1791.75
1333.24
4020.46
4837.76
2300.08
5579.05
4219.1
4683.69
3001.1
2970.05
4111.39
3650.64
2775.16
3941.5
4348.73
3371.66
2451.22
2300.04
1408.6
1386.15
2555.94
3396.43
2488.29
1911.69
2225.2
2888.92
1983.19
2013.92
1789.53
2329.61
2816.83
3899.31
3304.37
4036.66
2710.02
3064.27
3171.32
3408.8
3016.99
2741.51
2261.86
2755.09
2880.57
2393.94
3047.98
2480.78
3102.08
3253.05
3704.61
2903.3
2953.61
3290.34
2777.3
2904.24
2524.28
3165.84
2990.57
3132.14
1947.34
2292.79
2463.28
3739.8
3363.45
3546.11
3229.65
3016.5
2535.58
2437.11
2816.41
2623.44
3039.09
2691.47
2890.59
3171.32
3008.33
3137.12
3016.16
3175.08
3005.36
3213.89
3493.95
3011.48
2515.74
2996.01
2506.3
2436.49
2654.39
2496.84
2462.79
2389.71
2182.83
2829.61
7613.21
2057.77
1456.28
1392.33
1690.39
2601.89
1991.35
2052.67
1533.66
1378.26
2528.99
8077.34
3788.74
6293.6
3944.03
3140.22
4267.25
1119.26
1376.27
4436.52
3461.21
10863
7801.14
7514.12
2811.5
2621.45
1979.42
2354.5
2484.29
2469.04
2524.44
3689.13
1422.62
2263.57
1243.21
1644.4
980.738
1424.59
3169.56
2901.91
3194.13
2733.16
2647.89
2696.75
3099.95
2803.58
2716.69
2663.58
2766.03
2809.82
2452.29
2934.52
2307.03
2299.81
2608.14
3103.51
2910.29
3200.77
2702.35
2822.49
2384.33
3228.73
2233
2536.81
2881.11
2330.2
3583.09
2541.26
3607.55
3226.99
3899.6
3023.29
2715.04
3910.89
2413.24
3423.63
3183.44
2151.46
2575.84
1971.97
2837.77
4219.47
1769.37
2377.67
1684.18
2087.1
2885.33
4759.65
3727.48
4083.38
3313.57
3122.56
2887.39
3180.96
3537.19
2945.18
2591.32
2519.46
3126.31
3351.64
3227.66
3436.48
3022.62
3009.17
2954.76
3686.07
3556.15
3830.85
1723.71
1273.96
1035
1034.28
2185.1
2939.03
2759.54
2771.19
2513.57
1919.54
3211.29
2907.01
2936.84
2794.26
2922.74
2674.17
3026.65
2936.59
2994.69
3964.29
3652.59
3004
3503.4
5595.36
2266.23
3804.68
1409.46
2654.74
2296.84
2486.11
1690.39
1387.01
2628.17
5296.27
4960.85
6002.36
3090.21
4638.05
5025.38
4233.33
5587.83
1868.84
1315.64
1043.48
1771.8
2741.5
2974.81
4909.63
3177.34
2056.94
1599.77
3335.42
1844.03
3698.44
SCALARS SignedDistance double 1
LOOKUP_TABLE default
115.931
128.77
115.41
115.544
103.193
129.129
227.626
92.299
113.667
126.201
110.854
119.664
132.05
123.73
126.402
127.919
116.512
109.374
105.526
130.688
108.125
125.281
125.926
134.888
115.499
113.533
113.677
111.824
148.26
129.242
115.501
134.542
117.817
119.244
94.1567
91.099
166.719
147.85
145.838
123.467
117.603
128.343
128.064
129.434
113.116
118.923
125.428
125.531
124.654
126.377
124.246
119.16
112.854
124.272
126.519
113.105
117.97
117.966
113.804
120.021
127.529
112.642
94.2649
102.004
95.8537
107.901
117.047
96.7229
105.795
105.785
87.9235
105.141
129.82
121.821
125.454
134.315
124.73
135.473
141.471
127.785
128.925
129.8
128.46
123.393
115.841
116.93
114.569
115.877
109.186
110.628
109.083
119.516
115.755
111.444
120.307
106.431
109.862
112.329
121.979
113.806
124.317
124.797
148.463
150.521
190.392
112.525
98.7846
122.307
106.689
110.154
91.1756
109.72
112.689
108.873
109.504
119.076
116.432
122.592
87.6108
103.369
112.588
125.929
145.362
84.3194
91.3088
148.295
131.062
109.922
147.368
137.037
144.067
155.209
147.032
212.681
154.974
115.952
114.939
144.261
136.995
114.292
114.58
115.989
116.004
126.85
122.159
128.451
130.55
112.923
118.748
120.594
103.365
96.8216
109.041
144.75
115.37
112.107
121.735
149.458
122.19
140.729
128.066
134.173
121.493
115.666
110.134
136.361
124.741
137.111
118.413
119.792
125.75
119.477
122.202
122.577
123.178
122.067
120.147
128.578
125.028
129.366
132.497
131.992
125.317
122.987
123.223
121.99
125.344
130.903
128.977
130.284
129.413
126.728
108.397
109.104
121.477
113.839
117.673
113.747
116.113
132.619
125.415
128.188
123.939
124.586
124.013
127.008
114.194
111.622
116.608
117.293
111.699
116.002
121.755
115.148
120.115
125.129
128.296
119.909
109.329
121.175
119.541
108.769
110.712
108.379
103.792
131.943
112.808
106.526
111.56
118.096
108.37
117.888
91.8307
94.527
92.1207
102.001
98.7354
98.2475
100.478
99.9214
103.149
115.521
105.507
106.249
129.573
128.272
121.931
131.773
112.624
117.375
104.093
94.6425
91.93
110.588
95.5821
111.987
94.7935
102.244
103.667
100.674
106.892
82.9963
95.5632
103.387
111.09
103.743
106.761
116.999
104.385
90.5409
135.296
116.597
121.714
138.139
137.419
113.873
117.276
127.73
123.522
126.035
124.26
119.631
125.354
123.276
129.29
127.837
126.966
129.418
133.135
128.448
133.797
139.016
123.296
136.802
130.086
125.44
139.325
131.646
138.34
127.634
132.76
130.461
132.084
128.178
125.542
126.419
128.055
126.283
124.104
132.579
128.418
133.289
123.977
125.667
126.601
130.274
132.04
134.357
119.175
121.852
122.293
119.237
113.145
114.368
111.218
117.28
117.466
116.306
115.145
118.377
117.157
119.878
106.445
107.688
103.766
117.737
109.874
116.889
114.485
115.134
116.047
120.418
119.589
116.878
121.734
118.35
122.717
123.998
114.671
115.328
117.524
108.164
112.161
118.611
113.811
116.459
117.769
122.847
108.493
109.804
113.292
110.989
108.324
109.294
112.087
110.43
112.105
122.374
116.473
114.196
113.574
111.655
131.037
116.313
116.538
114.173
119.366
99.7499
114.212
136.089
125.963
129.042
119.799
122.521
162.624
158.356
207.07
143.694
147.329
148.281
157.62
159.104
167.675
133.686
162.027
136.183
94.3981
95.6332
111.904
97.9553
120.864
100.354
120.626
137.072
129.156
110.034
119.841
117.463
123.959
127.895
110.841
106.666
110.88
105.017
102.436
113.704
114.024
96.7019
90.656
112.382
90.9282
97.2938
112.647
110.527
113.251
114.369
109.729
114.852
110.824
107.154
106.381
122.58
121.012
127.309
116.196
121.105
120.313
119.491
120.106
117.57
91.8004
92.4511
102.993
97.1623
92.7364
89.738
117.992
107.375
115.099
111.51
110.962
107.507
123.79
127.746
111.336
116.14
148.731
134.004
141.688
89.8114
82.6396
94.4208
81.8606
86.8235
83.9668
94.956
134.017
128.571
112.71
146.049
139.303
153.943
105.493
118.361
112.491
122.514
125.437
132.115
141.924
122.635
157.028
146.565
145.414
147.049
148.781
127.823
145.503
151.109
149.445
148.38
148.219
166.549
168.165
209.97
186.564
147.273
162.975
145.906
148.532
174.551
153.528
210.333
183.957
171.655
117.636
115.839
131.684
120.798
116.513
115.225
114.157
149.908
146.823
127.238
142.276
139.242
143.954
144.444
111.829
114.728
113.849
115.958
116.659
119.361
120.638
118.163
116.311
121.239
117.558
115.031
113.492
118.531
114.498
113.108
116.347
117.667
115.783
122.845
121.09
126.69
117.538
125.711
129.098
129.446
123.548
122.543
133.769
129.391
131.836
126.203
129.513
124.746
112.258
118.08
118.322
111.553
121.433
120.965
122.575
120.948
118.604
118.569
121.583
114.514
117.402
123.169
125.683
119.384
122.867
121.971
108.487
99.9675
103.844
107.662
109.48
91.4684
112.088
99.3928
88.9259
91.8401
114.638
112.795
116.629
120.712
110.677
100.594
106.869
106.09
152.832
147.77
146.725
148.004
138.225
117.853
111.651
113.482
123.311
139.007
112.078
115.217
114.197
113.339
112.691
124.476
113.108
117.787
115.349
119.234
119.213
115.167
127.614
149.449
172.112
154.802
145.939
138.296
115.509
126.179
120.472
126.203
134.804
125.874
158.211
129.215
131.637
135.673
134.997
134.388
135.445
122.05
124.27
127.503
126.236
134.54
141.776
141.495
141.525
127.562
122.044
136.17
132.353
140.707
