# vtk DataFile Version 4.2
vtk output
ASCII
DATASET POLYDATA
POINTS 642 double
-163.31 253.595 91.8393
148.129 238.756 77.9439
-187.213 -308.252 126.529
170.506 -303.384 130.744
-5.17318 -292.251 423.34
-7.55083 74.199 366.566
1.56258 -159.872 -99.8277
-3.19916 180.43 -241.439
282.757 33.3687 -88.7554
223.41 -54.8762 268.747
-301.364 37.205 -91.5718
-248.166 -59.5285 270.359
-200.972 123.901 158.136
-142.847 21.4336 346.931
-100.039 223.708 199.977
83.2862 223.318 198.646
0.895234 287.456 69.805
103.348 241.132 -111.14
-105.048 249.564 -114.785
-188.286 111.976 -163.54
-333.461 164.365 -70.9921
-301.373 -41.4451 49.0481
136.151 17.8474 337.873
192.888 100.827 158.82
-140.76 -217.851 377.395
-3.87792 -42.345 427.273
-256.468 -198.325 3.04905
-251.47 -222 205.821
-4.94415 80.7242 -228.374
-178.832 -120.72 -143.52
307.257 158.715 -71.6297
185.163 96.0769 -174.87
231.952 -216.587 199.871
123.796 -211.862 370.055
90.4763 -364.174 322.207
-98.3265 -368.056 326.518
-1.38095 -328.777 225.877
-186.756 -253.066 -34.8798
172.448 -252.253 -33.9273
164.982 -121.941 -132.877
242.328 -192.459 -2.04389
288.342 -36.182 39.3803
-189.313 216.717 112.128
-151.57 212.838 179.292
-133.706 263.997 151.965
-205.783 -11.1128 317.153
-194.708 55.2767 276.499
-238.249 11.6615 241.083
-53.673 167.558 285.525
-105.156 137.722 285.473
-54.111 53.2947 380.095
-83.6456 276.914 148.051
-89.0255 289.117 87.5315
40.1174 167.352 284.011
-1.50344 215.866 222.565
74.2613 289.317 82.5159
68.6148 277.077 149.207
114.399 257.944 149.889
-59.3387 286.739 -12.7711
-172.059 235.375 -30.1121
160.9 224.735 -25.4656
50.7104 287.216 -7.16631
-58.1616 229.588 -192.101
-4.59269 269.073 -125.396
47.7251 227.146 -190.761
-274.076 210.417 -80.5771
-287.483 196.058 -64.32
-90.1443 148.933 -242.208
-170.492 192.254 -158.853
-343.646 128.937 -83.5373
-305.648 149.162 -135.373
-284.547 97.8898 -141.846
-307.252 149.172 -29.2268
-310.293 28.4429 -38.2069
-336.984 128.496 -70.976
-267.215 63.3488 66.8982
-275.088 -76.2049 185.645
126.064 202.706 176.922
164.93 205.222 87.5433
40.6849 52.8721 371.619
94.6214 131.8 281.186
217.764 14.5301 239.608
182.872 50.8342 270.6
190.868 -15.9017 311.563
-55.4555 1.52061 414.701
-8.40218 19.6262 414.174
-211.729 -111.208 321.558
-162.1 -51.5752 365.45
-2.59005 -193.529 423.187
-72.751 -139.032 418.479
-88.6516 -253.676 419.889
-288.465 -141.579 147.806
-261.71 -138.138 239.71
-287.683 -98.2229 -47.1656
-293.81 -111.37 36.053
-229.774 -278.416 165.627
-276.942 -218.594 109.255
-233.938 -257.345 69.835
-194.74 12.5178 -159.623
-245.336 -55.9438 -115.71
-5.07556 130.821 -258.103
-72.5821 128.086 -239.932
-181.227 -139.814 -121.609
-115.405 -34.8902 -186.831
12.5216 3.53619 -146.997
160.899 183.546 -149.419
82.2466 146.05 -239.241
263.738 191.41 -59.0499
252.354 208.442 -81.0957
269.047 93.0873 -135.728
284.811 144.973 -128.806
319.619 114.891 -82.6118
211.324 -269.841 166.505
162.258 -297.366 275.083
120.596 -339.853 252.129
196.213 -100.809 316.623
189.203 -213.154 304.256
242.199 -137.646 230.743
41.0807 -338.934 394.65
115.811 -287.596 375.824
74.1349 -253.96 416.692
46.7108 -374.926 292.763
106.955 -326.562 166.687
-51.274 -343.189 400.014
-5.61656 -398.157 343.865
-123.058 -323.393 179.175
-57.8914 -376.044 299.374
-131.522 -345.692 256.053
152.534 -279.932 65.0937
162.851 -286.187 31.219
-176.754 -288.453 37.1832
-150.2 -271.721 64.5639
146.525 -200.236 -73.2115
2.83674 -203.681 -86.4188
-148.153 -197.14 -71.1853
190.766 -240.148 -27.4907
219.509 -250.184 63.4313
159.046 -143.163 -127.321
163.071 -199.809 -94.6312
275.77 -95.1465 -44.4044
218.161 -161.001 -79.6707
240.307 -55.2877 -109.011
255.402 -215.506 106.824
294.822 18.3757 -29.8244
283.794 -101.95 18.3334
260.064 -141.727 154.224
252.081 -75.8379 179.031
59.9684 -138.433 416.353
152.353 -53.3057 360.137
41.8884 -0.122127 406.309
-179.816 -302.778 282.343
-132.029 -290.221 381.572
-209.155 -215.971 315.396
-178.469 -200.482 -97.3574
-199.965 -245.023 -29.5798
-228.274 -162.821 -83.5468
191.355 20.0479 -148.944
95.8713 -39.9621 -189.206
64.4674 134.048 -240.253
249.487 47.6583 61.7301
310.517 109.058 -71.3911
280.285 146.707 -29.8621
-180.282 235.731 103.276
-161.596 245.761 141.873
-146.301 266.168 129.319
-165.372 181.907 169.644
-169.148 224.196 152.356
-190.138 192.862 117.107
-120.66 255.175 171.611
-147.333 241.505 165.509
-130.132 224.658 190.996
-228.44 -34.3886 294.913
-225.357 0.64709 280.824
-245.69 -22.9848 257.425
-178.13 37.6933 312.265
-201.957 22.0105 300.323
-181.297 6.02647 331.791
-227.629 49.4514 213.492
-217.687 35.2211 262.243
-199.698 81.2848 230.218
-26.3377 119.965 317.072
-48.4769 103.555 323.458
-32.7101 63.6924 377.872
-96.6432 186.104 250.948
-78.0611 159.326 286.553
-74.3181 192.533 256.027
-91.6201 37.9175 367.132
-84.1536 87.987 321.936
-126.513 65.7703 321.002
-164.329 132.407 222.123
-148.382 92.8394 279.043
-127.221 174.494 234.265
-119.984 281.159 129.638
-127.162 279.144 96.3479
-98.5758 261.727 169.568
-108.33 274.263 152.112
-66.4948 294.085 75.037
-91.8069 286.516 123.343
-54.2274 283.77 114.878
15.2049 121.399 316.815
-4.38293 166.519 286.181
52.9976 219.09 212.128
24.4611 190.814 261.793
59.6908 190.947 251.885
-34.4464 189.852 262.809
-65.4333 218.478 217.731
106.035 273.703 88.2727
100.938 276.756 127.155
127.01 258.11 126.716
48.1286 284.458 115.594
75.0556 286.158 121.404
57.6907 294.698 75.3023
101.063 251.137 169.641
89.3798 271.673 152.295
80.5763 261.216 169.165
-46.1074 253.103 172.846
41.5034 253.994 171.826
1.32084 272.017 146.674
-109.337 285.297 42.3741
-159.954 242.927 26.5773
-42.2683 292.539 34.8439
-75.9882 298.049 40.4382
-136.602 248.122 -66.7536
-93.8348 281.076 -12.8095
-78.1752 279.175 -68.0999
151.122 230.984 18.2064
97.488 282.621 38.7074
69.0529 273.546 -64.0183
87.1926 277.881 -6.75805
138.523 233.98 -71.7399
66.3647 297.138 42.2491
36.336 296.181 35.6422
-30.3058 209.122 -220.659
-3.66025 230.974 -196.642
22.3581 208.49 -220.534
-52.9279 264.22 -122.679
-30.7936 251.123 -161.279
-82.6901 244.206 -158.469
72.0807 239.517 -155.261
21.5875 249.787 -160.816
42.4445 261.516 -122.499
-3.42885 286.923 -15.0435
20.8529 282.632 -74.8471
-31.5773 283.345 -75.4834
-247.53 220.101 -60.5815
-210.134 204.251 -16.1927
-202.763 203.799 -75.2535
-244.614 221.724 -60.7994
-311.872 183.927 -70.6687
-281.278 205.83 -74.9101
-306.355 195.236 -77.8713
-45.8544 165.697 -244.144
-74.3656 195.227 -221.493
-186.973 152.329 -172.549
-117.522 173.615 -213.235
-126.227 137.973 -225.386
-101.979 215.577 -188.414
-140.365 221.076 -148.403
-329.651 98.4656 -91.4593
-318.857 115.952 -116.269
-300.065 72.906 -119.538
-332.126 162.785 -96.669
-331.882 135.757 -110.686
-348.749 141.45 -79.2933
-265.576 110.127 -152.517
-296.892 126.926 -139.259
-274.649 133.419 -150.903
-240.161 194.102 -124.596
-261.316 171.027 -141.798
-290.77 189.083 -111.726
-227.092 177.656 16.7051
-323.902 159.933 -56.259
-304.183 170.516 -43.3091
-239.134 157.828 22.8165
-248.127 128.756 36.6647
-311.72 34.473 -63.9803
-335.544 105.209 -72.4142
-314.934 69.5061 -36.9779
-330.055 100.311 -65.4518
-305.718 2.47272 4.7283
-342.612 132.8 -76.9378
-343.71 139.336 -75.3754
-257.259 -25.0542 220.818
-261.937 -64.3814 233.135
-248.066 71.9487 115.823
-250.39 18.7834 188.146
-286.077 -67.988 123.605
-266.786 -19.9346 155.776
-287.35 9.62164 44.1682
-325.433 136.256 -45.3832
-310.738 110.711 -26.6339
-297.22 117.263 -11.6273
138.932 239.212 137.861
159.871 221.438 81.4608
107.747 218.966 188.305
125.764 236.754 161.186
175.175 168.818 102.998
144.27 218.934 148.071
145.761 160.644 174.907
16.3973 64.6165 373.377
35.87 106.756 320.072
118.044 64.1108 313.773
74.6825 88.7986 315.035
84.2123 36.8533 354.681
65.1576 156.13 282.873
82.4893 181.547 247.545
221.769 -18.5922 256.001
207.643 0.100823 276.067
208.812 -32.6956 293.213
189.05 69.1023 231.597
202.693 34.0049 257.01
208.982 45.5384 215.477
168.318 0.576014 325.53
188.017 19.3547 292.936
165.683 34.3888 304.757
112.857 164.017 234.54
137.669 86.7894 275.685
149.243 116.292 227.995
-33.0112 37.3052 402.299
-8.71375 44.5558 396.678
-91.3763 12.6663 384.464
-56.2549 25.4051 401.753
-8.37857 -4.94263 424.609
-34.3805 9.57458 418.783
-33.6184 -13.989 426.147
-236.521 -76.9032 295.016
-212.868 -52.5645 320.244
-153.356 -123.876 366.113
-189.133 -77.7726 346.18
-177.181 -164.355 342.164
-186.519 -30.7376 343.361
-155.686 -13.2384 357.88
-2.59806 -253.962 423.698
-55 -236.036 424.414
-49.3407 -274.093 423.59
-34.5824 -81.725 418.05
-47.9091 -164.451 422.286
-1.25738 -108.232 427.622
-109.284 -245.062 405.734
-80.8457 -222.097 415.989
-98.0812 -195.883 399.481
-103.83 -25.3496 386.363
-105.991 -90.4115 392.358
-62.9675 -46.6025 416.659
-273.876 -103.905 210.9
-258.127 -95.584 255.249
-291.118 -101.304 114.271
-287.304 -108.412 168.672
-256.256 -180.934 226.227
-281.578 -136.077 192.9
-273.267 -178.209 167.042
-296.015 -44.4822 -67.5252
-304.157 -51.6609 -37.7815
-277.021 -155.38 22.1786
-297.05 -102.38 -16.3119
-268.223 -143.583 -26.3818
-305.44 -63.9028 -3.28208
-303.623 -79.0318 45.938
-210.846 -295.418 146.535
-238.247 -270.222 116.864
-212.935 -285.374 99.9019
-270.459 -222.908 143.758
-258.312 -248.064 131.233
-242.469 -253.093 184.424
-248.47 -229.074 35.4369
-259.248 -240.774 91.7142
-269.394 -212.668 65.9439
-291.321 -142.734 94.5326
-286.426 -179.494 86.7437
-290.376 -187.111 122.007
-265.88 33.5023 -128.192
-275.658 -10.8162 -103.479
-203.707 86.0674 -158.804
-251.281 64.281 -149.74
-206.177 -93.8907 -131.097
-226.185 -20.0819 -140.063
-180.318 -61.9881 -158.315
-3.90844 139.961 -262.591
-41.2496 134.881 -256.086
-31.6183 97.9594 -237.358
-34.4442 129.283 -251.71
-5.76272 117.627 -248.832
-83.7146 134.796 -243.603
-122.991 136.666 -223.982
-124.061 -154.858 -103.472
-131.268 -92.9548 -129.894
3.73882 -123.423 -95.1757
-159.584 -81.9054 -167.206
-166.094 -90.3519 -165.687
-184.092 -134.32 -139.098
14.6769 76.3469 -229.207
-96.8928 -19.8747 -195.125
-47.1613 38.2278 -209.862
-123.319 78.6179 -190.683
[...]
POINT_DATA 642
SCALARS Mean_Curvature double 1
LOOKUP_TABLE default
0.0119054
0.0156121
0.0195708
0.0101297
0.00687008
0.00346759
0.0776176
0.00984453
0.00267222
0.00890634
0.00441486
0.00955642
-0.00214452
0.00406562
-0.00684105
0.0037479
-0.00456272
0.00364636
0.0015883
-0.0208191
0.0525685
0.0165311
0.00519693
0.000647325
0.00129544
0.0138459
0.00739873
0.00592805
-0.00175069
-0.0420394
0.0571588
-0.0668657
0.00433872
0.000897155
0.0210274
0.0147881
-0.00535964
-0.1049
0.0483437
0.0100692
0.00949015
0.0162011
0.021028
0.0107195
0.0185744
0.0107477
0.00847523
0.00579688
0.0100225
0.0075134
0.00895009
0.0137558
0.00257776
0.0128393
-0.000296371
0.00547597
0.019739
0.0178779
0.00235884
-0.00534057
-0.00568441
0.0041733
0.00958544
0.00851921
0.0100653
0.0209206
0.00219631
0.021879
0.00375493
0.0314918
0.0268564
0.0110556
0.0150015
-0.00229294
-0.00781326
-0.002866
0.000618901
0.0013676
-0.00165609
0.00483969
0.0073671
0.00918616
0.00916417
0.00986717
0.0147332
0.0128016
0.00559947
0.00919773
0.000778745
0.0157739
0.0200547
0.00607222
0.00634269
0.0110292
0.000142498
0.0111482
0.0137657
0.00325262
0.000176528
0.00453749
0.0340728
-0.0056116
-0.0269977
-0.036379
-0.0123068
0.00129852
0.0240161
0.00715209
0.0302698
0.00799602
0.0193006
0.073888
0.00811642
0.00577754
0.00578176
0.00803704
0.0110226
0.0084984
0.00873945
0.0139329
0.0241304
0.00606998
-0.0456374
0.0138
0.0356709
-0.054528
-0.00760797
0.00645554
-0.0163169
-0.0433891
-0.0044753
-0.00978142
-0.00974269
0.0280083
-0.0082084
0.00565036
0.00581394
0.0916463
-0.108686
0.0126964
0.0108652
0.0118745
0.017023
0.000703874
0.0172756
0.00248085
0.0025984
0.0124767
0.0123633
0.0110104
0.00826916
0.0132634
0.0160519
0.0469014
0.0102678
0.00828555
-0.00263833
0.0271068
-0.00557319
-0.00469562
-0.00874118
0.0107168
0.0110069
0.0177038
0.017984
-0.00396354
0.0179397
-0.00387162
0.0188744
0.0174159
0.0149307
0.00685037
0.007588
0.00863035
0.00821061
0.00984767
0.00989173
0.00294804
0.0077913
0.00409822
0.0031798
-0.00374786
0.0141118
0.0110893
0.0132156
0.0143454
0.00258228
-0.00331662
0.00339061
0.000333451
-0.000798554
0.00380518
0.022745
0.00861836
0.0121688
0.0220049
0.0110366
0.0193777
0.00126591
0.00659253
0.00468668
0.000712258
0.00867754
0.012348
0.00545885
0.00256973
0.00310393
0.0199204
0.0159819
0.00234317
0.0248268
0.0154385
0.01687
0.0226774
0.0187226
-0.00158584
-0.00108123
0.00727809
0.00940317
0.0020032
0.00178096
0.0212788
0.0077047
0.00464619
0.0109814
-0.000460507
0.0120108
0.00664647
0.00494639
0.00244281
0.0209725
0.00855064
0.0110627
0.00841167
0.0132374
0.00426119
0.00614823
0.0105981
0.00856245
0.00663449
0.00423237
-0.00107797
0.00826033
0.0070192
0.0704984
-0.0137654
-0.0214096
-0.0603238
-0.00215418
0.0214551
0.0519621
0.00614542
0.0109478
0.00980524
0.00674298
0.0560846
0.00923683
0.00961222
0.0146595
0.0064502
0.0130052
0.024471
0.0345082
0.0836119
0.0109974
0.0137633
0.0141931
0.0126408
0.0136586
0.017169
0.000136845
0.0110603
0.0116442
-8.74469e-05
-0.00535372
0.0115707
0.0550634
-0.00792532
0.0163878
0.0039716
0.0499356
0.0167457
0.00491963
0.00445485
0.00518383
0.00490747
0.00151313
-0.000706678
-0.00380472
0.0272045
0.00733971
0.00425962
0.0181686
0.00981958
0.0108022
0.0186763
-0.00257224
0.0122716
-0.00379282
0.0123032
-0.00212251
0.00466117
-0.00327949
0.00197747
0.00990159
0.00824581
0.00676827
0.00843401
0.0106647
0.00591132
0.0117722
0.00473187
0.0084251
0.00989062
0.00758931
0.00519867
0.000711277
0.000511791
0.0177283
0.00979291
0.00767872
0.0128689
0.0160031
0.0201221
0.0179205
0.0103748
0.00624372
0.00269726
0.00736877
-0.00340347
0.0107087
0.00744861
0.000413941
0.00775045
0.00578666
-0.00693125
0.00259645
0.0128903
0.00594938
0.00987958
-0.0055134
-0.000625178
-0.00133603
0.0119726
0.00546679
0.00851297
0.00225323
0.0114812
0.00303299
0.0123147
-0.00329592
0.0123056
0.0108451
0.000426237
0.0142555
-0.000285204
0.00635282
0.0116385
0.00828818
0.0112219
0.00684018
0.00927118
0.0119498
0.00500975
0.00742739
0.0105754
0.00694252
0.00342403
0.0077417
0.0197684
0.000444462
0.00498378
0.00154059
0.0110319
0.00139608
0.00455292
0.00334079
0.0351807
0.058021
0.00510718
-0.0136259
0.00188075
0.080854
-0.013027
0.0042334
-0.00801239
-0.00887351
-0.0642712
0.066392
-0.208078
-0.0275024
0.0291812
-0.0207987
-0.00654186
0.00315717
0.00791641
0.00886713
0.00797198
0.00823736
0.00853233
-0.027259
0.00295273
-0.00753195
-0.00665169
0.00859448
0.0592904
0.0220478
-0.00967347
0.0386165
-0.014685
0.0125379
0.018604
0.0112885
0.0187805
0.0215647
0.0165998
0.113181
0.0203056
0.0305346
0.0200283
0.0164447
0.0148107
0.00562753
0.00975112
0.00776108
0.00292576
0.0115132
0.00636845
0.0100901
0.00931814
0.0104624
0.00619619
0.00681904
0.00110859
0.00876687
-0.000128755
-0.0012719
0.00453695
0.00445756
0.00464079
0.0145458
0.0173094
0.0111699
0.0104579
0.0126296
0.00680628
0.00482923
0.0211042
0.00750536
0.00689004
0.00753142
0.0045894
0.0176231
0.0108796
0.0324036
0.0117851
-0.00142464
0.0245222
0.00105716
0.0190518
0.0157124
0.019725
0.0139259
0.0068136
0.0154333
0.0130528
0.0246773
0.0248557
0.0100959
-0.00234903
0.00838622
0.00381214
0.0152185
0.0205235
0.0390033
0.0356695
0.0359303
-0.0121998
0.0273739
-0.00339437
-0.00704375
0.0679936
0.136961
-0.14429
-0.0190504
0.019061
-0.129967
-0.00802282
0.0865826
-0.0565889
0.050261
-0.00338439
1.20073e-05
-0.020517
0.00433961
0.0125962
-0.0176415
-0.0194339
-0.00638039
-0.0167779
0.0157351
-0.00807345
0.00319952
0.00231673
0.00192953
0.00428334
0.0959552
0.0401028
0.00580188
0.00697962
0.0113421
0.00560507
0.00208177
0.0492732
-0.039245
-0.276096
0.116458
0.0417538
0.0130182
0.00848599
0.00908117
0.00775505
0.0041305
0.00521506
-0.00138956
0.00192958
0.011969
0.0462258
0.0115948
0.00790484
0.0100356
0.00543722
0.0124724
0.0134359
0.0103272
0.0052234
0.0101714
0.010983
0.00657414
0.0229081
0.0150722
-0.00794682
0.00450712
0.00268249
0.00147231
0.018551
0.00111281
0.00856476
-0.00106208
0.0119132
-0.00521897
0.0102221
0.0112964
-0.00437081
0.00189494
0.00487083
0.00159039
0.0109494
0.00710668
0.0116296
0.00727994
0.00434535
0.0164999
0.0175772
0.0202482
0.00858269
0.000486294
0.00313216
0.00524128
-0.00119591
0.00534988
0.00998391
0.00930622
0.00812026
0.00433696
0.0151892
0.0119125
0.0232482
0.0100517
0.00963529
0.00556007
0.00339091
0.00440784
0.000501498
0.0130942
0.008084
0.0054045
0.00629392
-0.00554802
-0.141096
0.0411255
0.0928713
-0.0107774
0.00454782
0.00963462
0.00383773
0.0601959
-0.253755
0.00711326
0.00520472
0.00325191
0.00507972
0.00830321
0.0800108
0.00666852
0.0111712
0.00247156
0.00189414
-0.000283948
0.00887247
-0.0142951
-0.0100734
-0.00680055
0.021566
-0.140432
-0.0688417
0.0658474
0.0694362
0.111134
-0.0233304
0.00331609
0.00820603
-0.00491639
-0.0086758
0.00378963
0.00252379
-0.000890301
0.00249634
0.00336427
-0.145369
-0.0311868
0.00728674
-0.144694
-0.0184592
0.00470699
-0.00526284
0.00226575
0.0141954
0.0103545
0.00633719
0.0128843
0.00572749
SCALARS CoVolArea double 1
LOOKUP_TABLE default
2213.35
2143.1
1382.3
1617.65
1327.28
1481.61
1864.03
1591.45
1927.02
1284.26
1957.48
1157.09
6336.6
2158.07
1555.52
1429.01
2924.23
3184.75
3515.2
2229.91
566.942
2895.25
2166.77
5865.46
2725.56
1539.52
2329.32
2716.32
1398.88
1164.55
413.721
1441.96
2432.6
2878.58
1727.8
1926.12
5237.04
703.075
374.09
1551.54
2239.01
2093.66
1868.24
1879.36
732.976
1303.49
2362.29
1742.01
1769.28
2815.19
1755.04
1615.23
1310.29
1659.5
3521.63
1175.01
1265.81
713.884
2440.34
3452.17
3317.3
2438.39
1937.59
2305.63
1882.02
1521.59
2040.2
1465.07
3185.12
542.726
1432.45
1425.45
1671.21
2151.61
760.075
4931.08
2425.11
2078.35
2281.46
2036.46
2647.68
1429.04
1970.39
1138.07
1368.17
759.96
2530.46
2700.41
3359.84
3035.39
1112.74
1992.49
2189.53
1832.35
2475.6
1954.77
1331.2
1896.39
4615.26
2688.37
385.29
2507.64
1905.99
1257.88
13398.1
3888.26
1396.64
1404.82
1039.71
1218.97
1426.25
458.18
1774.38
2315.19
1946.52
2330.17
2121.55
1821.54
2000.1
1790.09
959.292
1210.23
1124.11
1912.11
1315.1
1239.43
1284.09
2002.49
6274.39
788.068
614.989
7099.73
3126.58
8656.55
3314.41
1286.92
1740.19
1037.68
429.352
1561.85
1746.45
2352.04
1288.65
1728.67
1836.96
2514.48
2717.01
3137.88
1980.93
1765.88
2319.71
1980.52
2092.02
301.118
1300.5
1928.84
5005.74
1240.51
2983.34
5333.29
1086.46
1530.6
2449.17
957.741
1099.52
3142.17
1233.12
3857.15
871.751
834.472
1546.55
1360.49
1390.43
1471.21
2063.79
1268.52
1329.65
3583.19
1662.47
3323.02
2265.22
2143.42
1384.18
1820.36
1813.77
1482.05
2215.35
2803.19
3036.01
3540.86
3613.39
3146.05
950.901
2138.97
1452.18
669.113
1688.57
1014.96
2775.69
2156.34
2118.77
2170.47
2039.19
1451.43
2171.51
2609.88
2334.16
1031.08
1317.37
2492.62
885.294
1374.94
819.912
654.628
1144.15
3256.92
2792.74
2754.01
3069.49
3636.28
2526.01
1600.79
3740.53
3162.08
2887.48
3281.6
2693.51
3360.91
3272.47
3807.9
1371
2332.54
1885.98
1955.04
1821.23
2427.56
2088.2
2234
2337.21
2040.98
2611.13
3222.87
2959.9
2872.87
1772.1
3814.12
4023.38
1534.62
524.34
323.883
826.885
1829.12
2038.9
3500.77
2726.39
1566.54
2423.59
3656.98
1498.73
1138.36
1980.9
1325.68
860.597
424.251
1506.44
828.051
1969.59
3144.71
2529.27
1837.21
3388.8
675.779
1734.86
2733.31
5393.9
2096.09
843.538
2358.78
872.164
2203.09
145.889
349.277
2325.86
1664.84
5477.38
3598.2
3525.81
5020.54
5589.08
774.721
2801.3
2602.96
1046.76
1891.06
1556.5
831.278
5136.05
1999.18
4043.69
1452.11
2198.41
2805.82
2867.74
2474.5
1866.63
1860.38
1420.25
1156.75
1161.75
2959.57
1223.5
2631.38
1245.85
1172.07
1883.09
3005.81
3104.56
3287.47
827.144
916.318
1849.24
1035.43
769.796
699.749
1281.65
1723.66
1653.66
4143.91
2379.81
2942.23
1427.94
1919.48
2168.03
2167.89
1589.22
2503.44
2908.19
2740.36
1189.59
1634.45
3456.15
2792.95
4313.89
2755.32
1619.42
1735.65
2501.37
1723.31
2535.93
1915
2408.63
2344.92
2044.83
2898.53
2043.64
2202.74
2478.45
2581.84
1886.84
1515.89
1620.64
1891.68
1463.7
2134.27
1796.47
1470.68
2109.38
2355.49
2207.06
1759.41
2438.62
2551.41
3725.38
2643.89
2393.77
3102.5
2572.14
1223.84
782.113
1912.27
646.035
859.982
465.596
2056.16
3490.54
8664.58
10468.6
921.753
1613.11
345.135
4492.5
5546.74
1635.23
5569.54
3646.25
3746
2015.35
1751.98
3086.97
2740.83
1430.65
2980.72
3617.97
2710.67
1554.71
700.35
398.066
521.28
1490.85
2413.47
1630
909.77
1303.33
1807.5
892.142
1029.1
344.889
919.177
1138.64
2527.92
1647.9
2757.53
1835.39
2061.11
2117.76
2553.89
2035.09
1863.82
1248.92
1792.18
1799.91
1579.41
2278.88
1782.48
2292.98
2578.12
3081.33
2121.12
2187.77
2470.22
1623.29
1632.25
1471.45
2039.7
1853.33
2086
1313.47
1144.46
1506.43
2718.92
2242.59
2477.54
1943.15
1750.11
1129.87
1354.26
2409.85
1446
2847.14
1555.5
1733.48
1617.34
1807.47
2103.9
1857.94
1669.01
1411.09
1722.5
2248.79
3031.65
1541.61
2990.95
1404.41
1246.84
1150.28
924.552
878.816
1697
816.988
1744.51
10034
1711.46
165.629
674.241
1704.57
1211.07
752.24
2141.33
1207.26
290.563
2858.59
10799.9
3671.82
7375.42
3707.13
2943.53
4683.29
982.723
1338.76
4787.04
3187.7
13499.2
9044.67
9007.22
1826.43
1887.69
355.593
932.681
1632.03
1620.31
1589.99
3046.92
1094.65
804.071
326.917
307.317
478.274
109.13
2137.93
1951.44
2153.93
1819.93
1817.24
1950.48
2491.06
2016.95
1720.83
968.549
1421.01
1727.34
1552.49
2074.18
1384.56
1333.01
1655.84
2113.23
1847.94
2259.33
1667.8
1514.94
1470.38
2507.41
1497.1
1914.71
1995.21
1440.26
2960.35
1815.59
2964.86
2162.15
3183.43
2040.83
1884.26
3447.68
1630.93
2436.63
2095.5
1267.26
1705.91
1100.66
1939.43
3492.71
920.377
1352.57
769.274
1307.92
2103.67
3917.91
2785.31
3213.22
2368.69
2017.47
1938.94
2232.81
2645.6
1694.72
1498.87
1316.31
1992.83
2252.47
2405.65
2596.82
2244.21
2298.11
2025.04
2552.96
2324.97
2754.78
1531.84
250.415
752.219
591.269
566.146
1766.82
1846.95
1869.44
921.684
275.804
2320.22
1683.85
2187.35
1990.96
2047.21
802.131
1844.32
1330.08
2145.24
3048.87
3083.49
2385.19
3008.11
6882.94
1202.56
3663.23
835.149
1182.73
691.661
1778.82
297.283
605.516
2029.84
4683.35
4393.51
6540.49
2499.06
4353.45
4813.04
3668.48
5043.42
653.669
450.778
123.864
637.836
2017.56
2180.87
4956.33
2729.54
1308.49
714.438
3008.9
1139.76
3000.43
SCALARS SignedDistance double 1
LOOKUP_TABLE default
55.4643
66.618
60.8704
54.2987
49.531
62.2544
183.662
42.7844
52.4366
58.4263
51.5738
54.999
62.104
58.1481
65.5943
65.7451
55.1744
52.4674
50.4788
66.6864
53.3548
58.7684
58.0553
62.479
53.8988
54.1385
54.4706
51.8048
81.34
81.1321
56.068
81.6918
54.8205
56.2245
45.1083
42.0934
108.778
72.5632
72.8671
66.7218
57.888
59.3365
69.9506
65.9625
50.1269
53.7146
56.7753
58.3272
57.1958
58.8316
56.626
55.1311
54.4418
55.728
62.263
54.1751
55.2341
52.6474
54.4279
62.1189
66.7183
54.7516
43.7302
48.4851
43.5646
59.2867
54.2185
50.8065
55.0269
58.0377
43.4803
48.4428
63.5242
60.2135
57.6453
66.8275
58.805
68.0343
69.6631
58.8323
59.1294
60.4643
57.6857
55.8681
52.1245
53.811
53.1113
52.959
51.9645
51.3853
51.804
56.7054
54.627
49.6907
60.864
47.3736
49.9364
51.8394
59.1372
53.9366
60.3704
60.1833
69.2662
104.801
148.486
61.5772
53.0585
56.5194
57.4223
50.6908
42.3986
61.3421
51.4362
50.1531
51.4535
54.7542
54.8218
58.1352
40.8221
50.3473
54.3977
63.1536
83.5635
37.8489
57.8776
77.9951
65.2088
53.5703
69.1616
82.2267
85.3581
82.4063
71.9887
192.501
82.785
54.2535
52.2028
68.665
74.0949
50.8534
50.7343
53.679
54.5731
67.2648
56.7338
60.5966
61.1423
52.564
54.2108
55.6195
46.9104
45.7017
51.256
80.6298
58.7751
49.7997
58.9955
110.897
56.7814
76.7217
59.6209
64.6535
61.2088
52.66
48.5688
66.1335
60.3481
69.3976
53.7295
54.9488
65.0198
55.4678
56.5863
56.3027
55.6296
55.1339
54.3866
59.3519
56.9144
60.2306
72.708
71.1628
58.9993
55.4795
55.3836
54.755
58.1091
65.3393
61.8156
61.3601
63.3694
58.761
48.5849
49.9313
56.4623
53.3711
57.0194
54.1732
54.8665
72.5653
57.1834
65.4848
56.2582
56.6555
56.1429
64.8009
52.5469
49.9603
53.2135
54.6266
53.7948
56.2373
54.7273
51.3008
55.7675
58.8517
60.9237
55.2241
50.0626
58.4223
58.5328
52.7197
51.986
50.3338
48.6738
66.5721
52.4951
49.248
51.9729
60.2474
51.127
59.0738
41.4729
43.7057
41.1152
47.4885
45.8789
45.6065
46.3257
46.8616
47.3945
54.6533
50.17
50.9152
80.605
60.9979
62.5721
81.4672
50.746
57.3173
53.4866
46.2196
41.2166
61.1611
43.5462
58.6177
43.1732
46.9884
49.8598
45.7101
48.5914
38.4729
47.6434
61.2552
56.9539
48.6439
55.3009
68.2382
56.5066
44.7309
65.3902
54.0327
56.9922
66.2125
67.7112
54.7633
57.4909
59.7964
56.6652
66.1159
59.172
59.3427
58.4353
58.8363
58.5448
59.1793
60.9227
62.0662
65.3461
63.3318
64.1903
65.815
57.0669
70.6634
66.4492
57.7797
65.5965
64.9014
65.9085
59.6938
70.4865
60.9489
66.1405
60.0959
56.6889
57.4197
58.9421
58.1355
57.1304
61.6923
57.9852
62.1704
56.3436
56.6947
57.5256
60.1793
64.2779
64.1452
55.1593
56.1945
57.7838
53.5576
52.2261
52.5267
52.3863
54.0297
54.6
56.1968
53.0471
55.9868
53.0691
55.9955
49.9132
50.6285
49.7863
59.4575
52.132
59.2212
53.171
54.4673
55.1134
59.7267
61.0679
56.7454
56.5824
55.8431
57.993
58.8428
54.0467
53.7069
58.4344
48.7056
54.5954
58.07
53.5764
58.987
55.9953
60.4193
49.889
50.3537
52.8311
51.0332
49.9293
50.6199
50.4931
49.977
52.1311
58.1882
56.5388
62.5789
52.9087
52.2143
65.0537
57.2968
54.4227
55.4981
62.3488
58.604
61.6706
72.2972
59.3676
61.842
59.2432
56.494
101.463
86.3811
173.544
86.0865
87.0898
79.428
86.8089
121.881
119.758
82.2687
117.454
83.3651
43.1324
46.7943
57.6055
44.0495
74.8127
47.1108
74.7606
64.7385
66.5678
55.0462
56.655
52.7497
69.1366
69.3625
49.8685
48.5718
55.2698
54.6084
47.8631
56.3398
60.7601
46.126
47.9979
64.3023
40.9338
50.5822
51.1155
50.4007
55.0658
54.0715
49.8311
52.4708
52.5477
48.4545
50.7861
56.5459
57.0048
60.8745
53.5919
57.9673
59.1907
54.9724
55.7734
54.3429
46.0485
43.9843
49.9049
45.4475
41.2473
41.5666
55.4717
51.9034
56.0519
51.5964
50.7759
50.1937
68.7511
76.0875
58.7465
57.7751
73.7757
69.6508
74.1667
46.4654
37.4375
57.0713
36.6115
39.927
37.8514
51.6508
72.7427
70.9659
59.268
79.6854
72.7498
81.8953
51.019
63.7021
63.1613
64.3499
66.9082
63.6427
90.4132
70.9846
84.862
94.334
69.6027
86.5624
69.3992
74.1605
76.4883
72.7007
88.4238
70.4178
83.5811
102.66
107.181
180.144
134.649
71.3721
101.564
66.4087
69.4863
117.101
82.3978
178.008
126.253
108.673
56.2263
53.672
72.9108
69.4446
53.6432
52.4708
50.1602
79.8989
71.2188
67.1575
66.7461
69.8776
76.8
67.7537
50.5211
52.545
53.2597
53.7424
56.3692
59.9472
55.7324
59.8996
52.5765
68.2687
56.5974
51.665
51.925
56.2657
51.4034
51.1608
53.2114
59.089
55.8939
57.0965
57.4288
63.7351
54.8395
62.9375
60.5604
60.2806
62.0094
58.1812
63.555
60.3546
63.1164
60.1644
63.0713
60.6152
54.2045
55.1824
55.9959
53.3367
63.2779
55.3618
56.445
55.006
54.6771
56.759
55.301
53.0703
53.2366
56.0287
59.458
62.1235
60.0956
61.3792
49.8119
46.5502
47.7798
50.0776
51.2967
43.8412
53.8744
51.4065
39.8752
41.711
52.2102
53.2764
54.736
58.0816
52.2862
46.6939
50.2336
48.8789
79.9507
69.0151
81.8084
80.3268
78.3976
64.4243
49.2673
52.7424
72.4171
72.7007
51.9236
55.6483
53.1063
53.9321
51.4623
71.2374
51.84
68.1074
52.8431
55.0571
60.1321
53.4641
72.0704
73.3462
129.153
119.281
80.15
81.5136
61.3848
74.4537
56.0707
59.0399
72.0745
82.6483
119.855
75.7246
62.9354
65.4927
63.6798
62.5192
63.3551
61.046
58.9139
59.7747
59.0734
65.4618
68.4892
68.8274
67.7008
59.9203
56.1556
63.975
63.559
65.8307
