# vtk DataFile Version 4.2
vtk output
ASCII
DATASET POLYDATA
POINTS 642 double
-151.55 239.792 92.5345
130.973 223.459 76.7507
-181.064 -291.148 130.025
162.374 -290.041 132.812
-5.5985 -290.928 405.777
-8.31207 58.743 352.197
1.70823 -146.638 -85.0791
-3.4969 172.77 -228.18
266.57 38.0872 -81.594
204.57 -56.644 261.335
-285.849 42.9364 -83.6373
-230.848 -62.3639 262.406
-182.763 113.774 150.856
-133.516 11.209 331.958
-95.2069 206.518 183.144
75.5165 207.324 181.516
1.41017 268.089 67.3056
95.6464 225.066 -105.786
-97.7817 234.061 -109.681
-175.424 110.257 -144.025
-320.167 155.346 -77.6736
-281.901 -44.4898 43.7666
126.624 7.94588 322.612
174.974 89.6927 152.099
-129.964 -220.076 361.812
-4.66924 -41.6578 408.311
-240.302 -190.339 8.86656
-235.433 -216.072 200.328
-3.78693 83.4539 -216.593
-172.189 -116.815 -132.994
292.788 150.055 -79.8752
186.251 95.2647 -173.825
214.519 -210.189 194.023
111.549 -212.914 354.187
81.8369 -352.072 319.125
-91.3003 -356.815 323.175
-0.791034 -307.377 238.261
-193.354 -240.884 -27.2826
177.316 -240.244 -26.0047
157.899 -118.759 -123.666
225.203 -184.577 2.51498
268.784 -38.3957 33.1541
-167.675 210.058 104.352
-135.13 205.289 165.951
-125.969 251.342 143.532
-192.097 -16.6424 305.559
-181.759 43.7412 266.697
-220.149 3.55766 234.835
-52.0686 155.125 269.872
-94.9214 127.742 270.766
-46.9221 40.2954 367.064
-84.6867 260.14 139.014
-85.2686 270.107 86.3249
36.676 155.287 268.921
-1.89533 197.493 210.019
67.897 271.466 81.0019
68.7514 260.281 140.16
104.353 245.789 141.703
-58.389 267.626 -10.4271
-165.191 215.716 -29.3421
152.653 202.614 -24.2478
48.3851 268.326 -3.83587
-55.3555 217.41 -183.144
-5.04929 252.989 -119.234
43.8405 215.156 -182.152
-270.505 194.104 -77.4515
-279.057 183.22 -72.9072
-84.458 147.127 -226.998
-163.301 182.615 -146.433
-329.796 133.483 -81.8626
-297.594 145.872 -123.378
-276.136 101.224 -127.88
-292.481 142.288 -44.2444
-290.48 32.8649 -37.6013
-322.165 132.032 -82.9629
-245.862 60.5132 59.046
-255.309 -80.7598 181.293
108.228 194.035 163.257
143.396 195.447 80.0976
31.9511 40.2377 357.892
84.1394 121.583 266.82
198.3 7.34602 234.217
169.674 39.396 260.833
176.423 -21.8685 299.866
-47.4142 -3.54907 399.191
-9.45968 10.3182 397.739
-198.263 -109.442 308.449
-152.844 -53.5153 349.486
-2.93589 -193.575 404.764
-66.2401 -139.721 401.849
-82.545 -254.902 402.805
-269.041 -139.612 144.871
-244.171 -135.469 231.839
-273.375 -91.5121 -40.3515
-274.783 -105.973 37.3512
-217.774 -267.508 163.71
-261.281 -211.009 110.373
-221.995 -244.442 74.7491
-186.986 13.9579 -140.693
-233.373 -50.7798 -101.037
-5.75194 144.611 -243.541
-67.4375 139.658 -223.443
-196.823 -136.016 -115.479
-116.803 -30.7387 -177.75
14.8553 23.6958 -125.548
153.155 173.928 -135.198
77.8464 145.382 -224.014
254.674 177.371 -68.3039
246.551 189.912 -81.3199
259.263 97.9487 -121.78
275.8 141.02 -118.204
305.919 116.341 -82.5611
197.595 -258.325 164.799
148.476 -287.775 269.752
112.242 -325.193 252.726
181.559 -98.879 304.459
173.176 -210.142 294.084
223.71 -136.368 222.381
35.8282 -330.514 384.259
102.832 -282.565 365.567
66.05 -255.953 399.979
47.7671 -355.966 303.331
113.178 -312.256 173.277
-47.2998 -335.569 390.608
-6.41817 -380.871 342.661
-120.598 -306.289 181.055
-62.0195 -358.937 313.642
-123.839 -330.351 258.429
168.568 -273.977 72.491
164.707 -268.168 39.5566
-179.144 -272.188 45.1374
-166.24 -251.509 76.6392
156.233 -185.047 -57.1415
5.28217 -206.463 -77.8602
-154.889 -181.097 -53.7365
182.139 -232.34 -22.4812
206.831 -237.409 67.5446
163.274 -136.661 -117.537
170.46 -186.926 -77.3077
261.064 -88.3972 -37.7812
205.715 -154.215 -69.1291
230.25 -50.3364 -94.5702
237.353 -208.989 107.607
276.289 23.2921 -26.7443
265.219 -95.339 17.626
238.783 -140.22 152.762
231.356 -79.9034 174.502
52.9389 -139.061 399.842
142.08 -55.6396 344.403
32.3043 -5.18073 390.266
-167.244 -293.318 278.248
-121.231 -284.979 371.832
-194.457 -213.536 305.885
-185.425 -186.699 -83.9432
-193.332 -238.836 -25.8046
-216.278 -155.96 -73.6715
183.139 23.4808 -130.701
105.357 -26.0565 -177.034
61.0657 143.127 -227.785
226.012 41.6649 51.5965
300.019 106.43 -83.5938
264.533 139.504 -44.7029
-164.005 224.652 100.271
-148.534 235.941 135.459
-136.123 253.018 125.832
-144.792 174.583 160.142
-151.914 218.519 142.292
-168.275 187.583 106.931
-115.688 243.187 158.568
-136.494 232.27 154.276
-120.887 212.685 175.702
-212.265 -38.6798 284.381
-208.903 -6.3413 271.725
-228.024 -28.406 250.41
-167.71 26.8517 299.836
-188.335 13.2617 289.681
-170.583 -1.83713 318.146
-210.228 39.3693 207.36
-201.847 25.6676 254.541
-183.603 69.8596 222.618
-23.9925 104.584 297.201
-41.566 87.9019 304.888
-29.7444 48.7044 364.03
-88.2972 173.707 238.927
-72.4455 148.83 271.719
-70.6362 177.892 244.398
-82.0904 26.2495 353.229
-76.896 74.4437 304.458
-117.437 53.0697 306.13
-149.396 121.431 210.941
-135.385 79.904 265.246
-114.574 164.585 222.082
-114.777 264.998 125.727
-119.833 263.817 96.9345
-97.7863 247.647 156.395
-105.832 258.564 142.74
-67.1656 274.062 72.3005
-91.4505 267.939 119.18
-55.6519 265.046 110.479
12.1627 106.421 297.014
-4.5132 154.081 270.474
50.5475 200.758 198.072
23.0722 175.295 249.633
54.2416 176.227 240.039
-34.1198 174.388 250.559
-63.6687 199.894 204.258
95.7637 258.472 88.3584
93.1199 261.402 123.891
114.381 245.283 123.704
49.8369 265.68 111.141
73.0802 267.704 117.457
57.2363 275.178 72.4378
93.4033 240.206 156.844
84.355 257.017 143.639
78.3182 247.659 155.906
-46.9725 237.185 159.735
42.5658 237.934 157.719
1.46477 255.096 137.207
-101.456 269.842 43.5834
-148.42 226.141 27.6998
-43.8499 271.706 35.6647
-74.4721 279.926 41.0897
-128.149 232.427 -62.2809
-88.0795 264.859 -9.80513
-73.5152 263.371 -64.5041
137.107 212.133 18.117
87.6185 267.452 39.6141
63.1666 257.629 -60.0441
79.7394 261.7 -3.16802
129.778 215.621 -68.6089
63.085 279.492 42.9236
37.5151 275.404 36.5157
-28.9365 199.632 -209.897
-4.05321 218.183 -187.699
20.1447 199.1 -209.965
-49.8332 248.594 -116.875
-29.7177 236.628 -153.997
-78.1245 230.442 -152.024
66.3816 225.657 -148.78
19.3866 235.023 -153.418
38.2962 246.424 -116.862
-3.2976 267.615 -13.2696
18.8708 265.368 -71.3379
-30.6335 265.725 -72.0823
-241.023 200.522 -61.0202
-196.421 194.728 -26.0782
-198.626 186.299 -62.5522
-239.323 200.876 -61.1668
-303.18 173.241 -81.1609
-275.223 194.354 -78.6942
-296.741 180.553 -82.2101
-43.3712 159.491 -230.773
-70.3613 186.93 -210.428
-178.11 149.694 -155.58
-110.348 166.239 -202.331
-118.994 138.272 -214.935
-96.0161 205.124 -179.248
-133.281 208.07 -142.103
-315.447 103.76 -85.7674
-307.324 120.169 -106.07
-288.444 78.3763 -108.682
-322.996 156.808 -92.6512
-319.3 137.331 -101.35
-332.778 140.565 -83.3548
-260.752 111.494 -133.867
-288.08 129.22 -125.322
-268.848 132.177 -132.73
-236.423 176.183 -115.543
-256.48 161.949 -127.975
-285.163 178.033 -103.727
-210.439 163.403 9.56332
-311.519 152.39 -66.8277
-293.49 159.522 -54.2802
-222.091 146.447 11.1157
-230.688 116.403 25.3
-293.39 39.2736 -60.9048
-320.719 109.142 -75.3648
-303.035 63.7357 -48.9193
-318.791 100.703 -73.4097
-292.341 2.22127 4.14881
-330.986 136.885 -82.502
-332.946 140.789 -83.0352
-237.819 -30.3041 216.158
-241.919 -67.7503 227.458
-230.582 63.0891 109.406
-231.238 11.71 183.291
-265.621 -72.0384 119.295
-245.622 -25.2659 151.396
-267.73 4.33029 35.5997
-307.614 135.276 -58.2676
-291.957 109.032 -39.0576
-280.007 110.859 -25.9278
123.215 230.108 132.02
138.244 209.708 75.4386
94.5661 207.494 172.908
112.577 228.234 149.428
155.79 159.295 94.7763
125.292 212.377 138.206
126.364 150.834 166.374
11.5346 50.3878 359.311
27.4572 92.3157 301.333
108.729 52.1221 299.2
66.3017 75.5834 296.721
74.4461 25.3905 339.346
57.7139 145.49 267.895
72.7619 169.078 235.315
202.629 -23.1858 249.601
190.229 -6.33349 267.104
191.436 -36.5712 283.458
172.578 56.8837 224.495
186.272 24.8704 249.619
189.987 35.5789 210.395
156.595 -7.58656 311.727
173.781 10.868 281.858
154.36 23.6141 291.946
98.9635 153.15 223.302
124.353 73.9056 262.89
133.246 103.635 217.47
-30.133 25.5483 387.097
-9.74118 31.6678 381.766
-80.7469 5.16858 368.74
-48.5329 15.9514 387.549
-9.52203 -9.39163 406.832
-31.3447 2.00937 402.113
-30.2512 -15.9898 407.844
-220.977 -77.6452 284.167
-198.387 -54.5425 307.621
-142.522 -123.091 349.652
-177.014 -77.4143 331.887
-163.749 -163.986 327.321
-174.729 -34.6361 329.359
-146.314 -19.575 341.78
-2.78269 -254.07 405.924
-52.9739 -236.665 406.563
-48.1606 -273.297 405.94
-31.3604 -81.6314 396.401
-45.954 -164.674 403.976
-1.86737 -109.185 408.037
-99.0985 -248.708 390.595
-73.2937 -224.705 398.849
-86.8643 -197.619 383.409
-93.2766 -28.6529 367.878
-95.2103 -91.4284 374.216
-55.7636 -47.1256 399.197
-254.745 -105.839 204.681
-239.718 -95.8816 247.418
-270.835 -101.939 111.583
-267.211 -110.542 164.966
-239.119 -176.076 219.723
-263.514 -133.685 187.711
-254.113 -173.141 161.054
-281.79 -40.5519 -59.9205
-285.48 -48.5592 -34.6631
-259.192 -148.795 26.4602
-279.778 -95.9411 -13.3367
-250.392 -134.364 -19.6914
-285.754 -61.4583 -2.99016
-283.489 -76.9098 44.5837
-201.181 -282.028 147.127
-226.13 -257.523 119.139
-203.581 -271.866 103.718
-254.506 -216.205 139.761
-243.799 -237.797 130.339
-227.735 -244.394 180.046
-235.286 -218.61 40.4938
-245.85 -230.2 95.2175
-253.292 -204.971 70.5217
-271.105 -141.101 94.1824
-267.621 -175.02 89.9529
-269.593 -182.634 119.804
-255.646 38.8155 -114.111
-263.244 -6.08604 -91.0542
-197.671 87.4375 -137.958
-244.82 67.6701 -132.398
-196.616 -90.3554 -119.415
-216.617 -16.3645 -124.289
-172.501 -60.383 -146.573
-4.76381 144.249 -243.665
-36.7468 143.218 -237.221
-29.1434 105.508 -219.109
-31.6292 142.87 -236.628
-6.22053 127.21 -230.856
-78.1679 145.768 -226.951
-118.871 138.261 -215.097
-126.327 -145.73 -81.7934
-143.345 -76.6672 -109.883
4.16905 -121.5 -76.3972
-155.129 -81.3472 -158.685
-162.451 -92.8587 -154.613
-176.832 -127.589 -124.852
13.3841 78.5976 -230.612
-101.269 -11.5819 -186.172
-46.1788 39.1099 -205.645
-115.015 84.0306 -172.523
-72.0919 42.7717 -193.527
[...]
POINT_DATA 642
SCALARS Mean_Curvature double 1
LOOKUP_TABLE default
0.0190098
0.0274293
0.0256862
0.0177048
0.00386099
0.00369028
0.00746945
0.00926759
0.00334395
0.0106707
0.00438784
0.0123619
-0.00197019
0.00383246
-0.0219681
-0.00634971
-0.00420606
0.00368513
-0.000122028
-0.0351415
0.0776416
-0.00477477
0.00530973
0.000973834
0.00109559
0.0212638
0.00667838
0.00723088
-0.0312254
0.00630099
0.00912969
-0.0798677
0.00412459
0.000130689
0.032273
0.0250932
-0.005349
-0.0457222
0.101765
-0.0284297
0.00986885
0.0388946
0.017712
0.0116836
0.0277062
0.0137115
0.0111945
0.00520464
0.0101166
0.00881224
0.0111703
0.0175939
-0.000183462
0.0166051
-0.00109262
0.00618898
0.0245843
0.0264347
0.000983902
-0.00786272
-0.011763
0.00384966
0.0102081
0.00876017
0.011683
-0.0132876
-0.00437096
0.0551418
0.00506054
-0.0201802
0.0393841
0.017505
0.0128787
-0.0252972
-0.0455416
-0.00597497
0.000655549
-0.00238603
-0.00302301
0.00537655
0.0101282
0.00939843
0.0121924
0.0125961
0.0189265
0.0139822
0.0061555
0.0113016
0.000758287
0.0230568
0.0230481
0.00818553
0.00657707
0.0162548
-0.000142022
0.015217
0.0200962
1.88345e-05
-0.00116733
0.00190165
-0.174406
-0.00692802
-0.0461982
-0.0604338
-0.0128697
0.00402512
-0.101988
0.00770456
0.0469341
0.00630294
0.0254641
-0.0138143
0.009724
0.00592499
0.0109027
0.0101368
0.0124233
0.00973293
0.00977195
0.0166101
0.0280122
-0.0018239
0.197978
0.0185901
0.0604236
-0.0488494
-0.0265585
0.0137136
-0.0227734
-0.106107
-0.154024
-0.0151944
-0.0180539
0.0294859
-0.0136252
-0.00765582
0.00370009
-0.0400669
0.436479
0.01985
0.0132591
0.016917
0.0211749
-0.00786593
0.0269723
0.00221718
0.0028539
0.017337
0.0158471
0.0134273
0.0104933
0.0176131
0.0213598
0.475222
-0.00857881
0.00811451
-0.00397782
-0.133264
0.012064
-0.00843445
-0.0763014
0.00802433
0.0174264
0.0296949
0.0232922
-0.00667722
0.0192708
-0.00590213
0.0261308
0.0283842
0.0267924
0.00626862
0.00728822
0.0106066
0.00969506
0.011646
0.0119005
0.00298938
0.00902887
0.00421898
0.00236026
-0.00841907
0.0172753
0.0166725
0.0189317
0.0202587
0.00271256
-0.00414665
0.00448563
0.000957719
-0.00329036
0.00454036
0.0306259
0.0115528
0.0148858
0.0264745
0.0097798
0.021828
0.00167736
0.00740176
0.00662794
1.41515e-05
0.0103282
0.0182635
0.00680502
0.00153162
0.004695
0.028167
0.0204863
0.00210077
0.0321708
0.0162199
0.0273379
0.036057
0.0254545
-0.00239041
-0.00347768
0.0107968
0.0118238
-0.000565511
-0.000906558
0.0286069
0.0101182
0.00642655
0.013531
-0.00101285
0.0147919
0.008144
0.0063024
0.0039654
0.0313301
0.00581233
0.0137137
0.00830349
0.0168582
0.0046274
0.00649471
0.0122519
0.0096191
0.00613721
0.00522964
-0.0013667
0.00902067
0.00684284
-0.0684592
-0.02107
-0.0271182
-0.0769171
-0.040684
0.266049
0.102859
0.00861194
0.0132417
0.0128589
0.00555429
0.00248492
0.0105317
0.0122005
0.0178862
0.00790381
0.0174127
0.04982
0.0350095
-0.135794
0.00883684
0.0136474
0.0115795
0.00960894
0.0224118
0.0237997
-0.00198236
0.020314
0.0174363
0.000337809
-0.00666381
0.0161483
-0.179188
-0.0592489
-0.102318
0.0949964
-0.562168
-0.100825
0.00535381
0.00238478
0.00908685
0.00578708
0.00114517
-0.00166828
-0.0051391
0.0263871
0.00556016
0.0035589
0.0302671
-0.000219417
0.0173168
0.0259363
-0.0017889
0.0106368
-0.00399886
0.0169172
-0.00581838
0.00712182
-0.00575439
0.00167747
0.0118789
0.0113297
0.00842871
0.00839342
0.0110665
0.00656608
0.0156982
0.00457681
0.00948102
0.0122115
0.00827163
0.00673684
-0.00105605
-0.000723693
0.0210264
0.0101432
0.00953397
0.017029
0.0211562
0.025599
0.0195187
0.0120678
0.00595525
0.00317607
0.00822484
-0.00425941
0.0129144
0.00827031
0.000659171
0.00947904
0.00312627
-0.0152792
0.00166059
0.0189148
0.00435246
0.0126873
-0.00757014
-0.00344034
-0.00360449
0.0172703
0.00553511
0.00862104
0.00303862
0.0115291
0.0030245
0.0160313
-0.00652814
0.0205254
0.00959186
0.00104455
0.0172405
-0.00473626
0.002308
0.01559
0.0111163
0.0112569
0.00908521
0.0120493
0.0131551
0.004474
0.00928977
0.0135585
0.00714347
0.00311753
0.00900373
0.0182416
-0.000495195
0.00615652
0.00312678
0.0136683
0.00113993
0.00537907
0.0025353
0.102127
0.20535
-0.00306755
-0.0459561
0.000496334
-0.00378484
0.0441623
-0.0146733
-0.0131978
-0.00914195
-0.00876385
-0.0659449
-0.00952114
0.0270343
-0.0269402
-0.0197692
-0.0100996
-0.00102078
0.000162691
0.00888588
0.0101727
0.00982629
0.0101215
-0.0721028
0.00102049
-0.0228684
-0.00857609
0.094663
0.0371007
0.00982693
0.0709003
-0.043877
-0.0283918
0.0175936
0.0192755
-0.013198
0.0217068
0.0288801
0.00292723
0.0640176
0.0262083
0.0556955
0.0237735
0.0305091
0.0194206
0.00439446
0.0100061
0.0131366
0.000801985
0.0159908
0.00758901
0.00797232
0.0131178
0.0112251
0.00589906
0.00819566
-0.00178393
0.0104399
-0.00123399
-0.00303449
0.00647215
0.00516841
0.00497074
0.0164289
0.0242993
0.0101436
0.0112637
0.0178132
0.00716281
0.00325242
0.0264662
0.00398989
0.00802334
0.0111453
0.00412051
0.0186704
0.00396946
0.0478339
0.0312528
-0.0398851
0.0148463
0.00107573
0.0198686
0.0200759
0.0366705
0.0205922
0.00669396
0.0214322
0.0270605
-0.0128769
0.0162737
0.0220939
-0.00225112
0.00589444
0.000158912
0.0235549
0.0374977
0.0789229
0.044382
0.0309862
-0.0154196
0.0223168
0.0138955
-0.0104991
0.068422
0.468735
-0.205775
-0.0433332
-0.0123768
-0.0163099
-0.0227842
-0.0964974
-0.248487
0.0590509
-0.00617191
0.0350032
-0.0220701
0.0422751
-0.00599568
0.00715502
-0.068322
-0.0291674
-0.00345458
0.010765
-0.00477095
-0.000180349
-0.00312288
0.00596778
0.000461653
0.151158
0.086955
0.00671012
-0.000883297
0.0113667
-0.0164289
-0.0151001
-0.0237167
0.179594
0.318389
-0.113866
-0.725682
0.0195184
0.00953038
0.0113218
0.00949079
0.00326767
0.0056164
-0.00437566
-0.00347319
0.0114709
0.0271575
0.0116267
0.00326039
0.0109131
0.00504996
0.0180945
0.0182548
0.0129345
0.000258076
0.00827509
0.0120021
0.00497769
-0.0659054
0.0171252
-0.0135939
0.00322739
0.00377037
-0.000585168
0.0229085
0.00111305
0.00997192
-0.00164698
0.0165609
-0.00757031
0.00841276
0.0140887
-0.0050905
4.13293e-05
0.00423889
-0.006933
0.0131676
0.00712067
0.0143767
0.00700904
0.00605982
0.0217117
0.021032
0.0280527
0.00933059
-0.000445631
0.00153552
0.00563758
-0.00121095
0.00551223
0.0109939
0.0111643
0.00942974
0.00400364
0.0207142
0.0105555
0.0276394
0.0130353
0.0104603
0.00758775
0.0021217
0.00616499
-0.00308508
0.0155433
0.00880594
0.00592152
0.00714253
-0.0212645
-0.280734
0.0535816
0.0669043
0.121412
0.0101862
0.00778276
-0.00335546
-0.114807
-0.98916
0.00776701
0.015334
0.000412038
0.00460112
0.00933363
-0.169631
0.00278225
-0.000681173
0.00263346
0.00205377
-0.00492287
0.00803517
-0.0331829
-0.0166486
0.0453602
0.0385468
-0.137178
0.00029773
-0.111199
-0.0738145
0.986417
0.0798595
-0.00993352
0.0030838
-0.0134095
-0.0136415
0.00209936
0.00180242
-0.00084704
0.00259911
0.00613049
0.150077
0.0670378
0.380162
0.256975
-0.0744893
0.00354828
-0.00672801
0.00283324
0.0201992
0.0124403
0.00295773
0.00341006
0.00783215
SCALARS CoVolArea double 1
LOOKUP_TABLE default
1868
1756.46
1117.55
1426.72
1138.8
1294.48
1199.51
1234.39
1686.56
1127.14
1632.25
969.094
6592.19
1947.77
1328.34
1127.95
2762.68
2978.34
3370.23
2186.79
250.493
2483.42
1980.6
5892.62
2651.21
1241.95
2111.93
2520.46
1454.89
994.795
197.111
1720.02
2225.32
2795.1
1302.52
1459.89
5984.09
822.754
442.562
1322.75
2053.49
1721.11
1467.84
1605.98
466.565
1068.39
2111.76
1535.29
1526.82
2561.6
1580.9
1342.6
1007.05
1378.02
3482.6
863.959
993.619
445.807
2197.05
3342.37
3082.26
2130.12
1652.89
2028.25
1603.38
1174.12
1892.55
939.59
2620.98
309.992
980.769
1155.4
1480.46
1952.95
805.91
4836.5
2294.52
1879
2117.37
1904.2
2392.12
1227.27
1720.38
911.793
1087.5
536.571
2328.06
2460.86
3156.68
2722.3
850.34
1735.2
1938.7
1523.93
2210.07
1651.27
1031.35
1711.93
4599.41
2514.43
214.256
2593.86
2268.4
1008.37
16194.8
3625.02
893.195
1311.98
638.272
1036.13
1001.55
246.201
1483.03
2042.71
1600.21
2095.6
1835.63
1575.19
1661
1464.94
705.986
969.963
621.587
1559.68
800.121
1131.52
1182.45
1566.23
6772.41
367.958
346.937
7627.34
3389.63
8103.15
3659.53
902.336
1558.17
1100.85
150.5
1258.9
1503.55
2122.24
992.083
1512.99
1525.27
2382.11
2591.17
2898.17
1688.51
1507.53
2023.78
1630.42
1772.12
45.325
902.814
1690.47
5223.95
546.624
3169.89
5382.06
1131.75
1367.05
2139.12
639.972
785.026
3064.2
1034.49
4092.85
644.568
572.012
1223
1138.84
1170.01
1261.48
1831.68
1028.82
1091.28
3399.72
1440.08
3127.4
2044.58
1975.14
1145.41
1493.95
1561.84
1215.93
2053.56
2706.96
2883.28
3290.18
3408.22
2868.86
659.446
1852.88
1280.39
434.532
1492.39
768.931
2535.66
1885.97
1867.76
1979.03
1795.19
1167.55
1934.63
2484.28
2044.1
725.722
979.785
2243.6
602.228
1132.8
578.575
398.201
913.767
3156.09
2673.11
2409.87
2804.62
3250.39
2376
1294.35
3539.02
2879.59
2591.12
2988.18
2438.65
3089.2
3039.2
3691.72
1043.29
2128.6
1600.81
1679.25
1534.04
2143.31
1841.4
1962.24
2082.38
1795.54
2338.76
3054.7
2656.76
2590
1367.99
3464
3999.19
1308.78
371.612
186.679
406.872
1309.87
1701.13
3125.79
2302.83
1239.88
2102.28
3538.11
1133.94
887.787
1670.76
747.001
501.907
154.522
1356.21
592.41
1714.3
2855.41
1922.04
1262.57
3299.62
452.138
1512.54
2565.2
5638.2
1693.36
525.595
2343.85
741.745
1851.02
65.5239
210.039
2160.09
1478.39
5201.85
3338.64
3396.49
5078.78
5917.62
592.766
2971.31
2291.55
773.226
1601.19
1277.29
601.258
5397.16
1863.97
3982.77
1205.28
2020.12
2626.35
2809.49
2361.18
1640.74
1548.29
1218.46
931.205
944.354
2743.18
983.582
2392.81
1025.97
934.554
1644.79
2777.63
2861.33
3069.79
595.311
701.406
1583.72
792.941
517.75
461.698
980.615
1459.18
1402.17
4018.98
2123.46
2800.74
1165.78
1661.37
2008.78
1955.81
1353.88
2212.33
2608.7
2464.94
1044.24
1372.57
3382.43
2534.2
4125.9
2446
1391.85
1487.81
2223.19
1498.72
2344.35
1663.68
2181.01
1940.36
1714.4
2695.79
1776.56
2008.7
2253.99
2244
1556.08
1264.87
1395.74
1609.09
1174.2
1856.63
1571.91
1223.57
1842.95
2070.61
1905.09
1440.01
2159.44
2249.8
3801.02
2409.99
2269.82
2903.08
2445.71
631.305
287.273
1971.46
601.309
912.278
190.282
2035.72
3602.45
10261.6
11799.1
802.349
1677.64
352.739
5194.84
6086.66
1485.42
5816.7
3631.69
3611.79
1675.76
1231.1
2778.75
2456.46
1343.12
2755.62
3786.83
2518.8
1252.84
298.848
200.062
386.972
1174.1
2190.63
1362.95
679.448
1035.78
1588.39
634.084
854.32
140.322
564.712
640.184
2046.15
1057.8
2367.49
1595.2
1730.83
1790.74
2312.35
1723.49
1596.49
946.485
1485.69
1489.1
1348.95
2053.57
1603.85
2071.86
2392.64
2902.39
1875.24
1959.2
2234.87
1286.83
1244.33
1200.88
1693.24
1493.04
1720.31
1204.65
838.96
1259.79
2410.08
1894.04
2164.32
1386.39
1236.02
698.647
955.505
2580.17
980.48
2988.37
1229.12
1383.21
1050.65
1381.74
1746.38
1451.11
1125.73
1323.55
1351.57
1785.66
3374.44
1391.55
3005.97
1018.33
816.692
639.707
495.885
462.234
1743.32
375.8
1276.04
11298.5
1371.19
151.007
543.786
2029.56
1030.11
654.764
2442.7
1003.19
324.736
2444.45
11889.8
3835.64
8289.81
3837.21
2928
4946.54
1010.7
1422.51
5018.39
3017.34
15155.5
9063.17
9205.75
1446.42
1723.73
141.704
540.745
1393.92
1353.2
1367.33
2903.17
1059.1
463.73
291.403
110.302
450.494
72.7855
1779.92
1659.07
1769.34
1566.63
1579.36
1741
2431.1
1828.93
1469.3
514.354
926.842
1367.33
1315.85
1831.9
1108.99
1037.07
1384.5
1828.78
1577.5
1979.6
1414.86
1119.69
1221.62
2339.32
1307.39
1757.08
1747.76
1179.34
2761.77
1603.26
2790.52
1830.11
3002.13
1799.17
1647.95
3334.28
1402.55
2119.08
1796.54
1019.22
1465.86
861.572
1674.04
3262.82
692.66
1073.1
533.069
1093.86
1883.49
3641.87
2502.62
2986.13
2015.79
1677.38
1630.32
1933.77
2383.15
1307.51
1206.22
975.487
1624.85
1911.8
2156.5
2351.97
2012.77
2118.88
1770.02
2213.34
1942.91
2420.86
1413.87
229.585
711.188
483.672
300.503
1376.87
1643.81
1576.66
522.172
73.9771
2059.28
1422.09
2029.26
1781.76
1839.6
385.738
1486.05
854.488
1885.29
2955.62
3017.82
2328.78
3358.73
8106.82
925.562
4304.23
779.053
831.463
234.931
1952.88
98.1322
610.341
1967.72
4249.46
4010.66
6989.95
2348.47
4507.54
4813.75
3513.3
4826.4
450.745
346.854
85.9052
458.001
1988.06
1992.08
5012.89
2645.96
1081.74
524.446
3259.52
1032.05
2825.28
SCALARS SignedDistance double 1
LOOKUP_TABLE default
36.3736
44.7936
44.3609
43.2114
31.5239
40.5715
175.695
27.5358
32.225
35.9286
32.3787
33.6915
39.7091
37.7697
46.1146
46.797
35.1886
33.4736
32.383
43.484
33.3241
37.6309
36.3876
39.4796
33.947
34.5311
37.5613
33.9558
73.2549
74.4608
35.4701
80.8406
35.9387
36.1717
30.5243
28.6837
95.9229
56.5356
56.4637
59.1794
40.0375
36.118
47.7942
43.7595
29.7011
32.9367
34.956
37.2162
35.4189
37.6292
34.8134
34.3374
35.803
34.6501
42.8429
36.22
34.5608
31.6318
34.7103
42.5966
45.5678
35.3718
27.6939
31.0188
26.7353
43.6838
36.1685
36.6534
38.4718
43.4764
29.6593
32.4375
42.1826
40.8154
36.7089
44.7325
37.5738
43.9349
44.4399
36.5438
36.3725
38.4556
34.5351
34.3213
31.5843
33.4715
33.6667
32.6819
33.6951
32.8732
32.7714
36.0502
35.2923
29.5326
42.6797
28.1166
31.3184
32.591
37.6195
36.238
37.9799
37.5932
53.3668
95.0509
134.746
44.3613
37.1744
35.0014
38.2614
31.6927
27.0865
46.6979
31.9492
31.7687
34.4191
34.1449
34.8983
37.3102
25.8134
33.0677
34.7068
40.4274
67.892
22.4919
42.7602
66.1526
40.5751
34.5755
51.9088
62.6982
66.433
53.4763
47.2291
189.529
60.8632
44.015
32.3968
55.6687
50.9228
30.1957
30.5395
35.2262
36.0414
51.5218
35.2578
38.4212
38.6301
33.7152
33.5894
34.6828
29.272
29.7187
33.3388
58.4464
53.5612
30.2013
39.4483
89.6565
39.6399
54.9867
43.991
42.2174
43.9866
31.9336
29.7462
43.5904
38.5366
46.8395
34.3871
34.3817
45.9694
35.3882
35.7455
35.0261
34.263
34.0875
33.3534
37.5694
35.4402
37.7094
52.3171
49.6027
37.3757
33.8095
33.6343
33.656
36.485
43.2264
39.7097
38.5325
43.0169
36.9448
31.9361
31.2709
35.1932
33.0991
36.8902
35.0024
35.6607
52.2019
35.2699
45.1872
34.7999
35.024
34.6352
44.6581
32.8603
30.6858
33.3279
34.5084
34.7672
36.5969
33.4238
32.2465
34.7721
37.4101
38.5657
34.5584
31.0757
37.7086
37.6213
34.479
33.0455
31.7519
30.5141
43.2164
32.6984
30.8816
32.5959
40.148
33.1954
38.8638
25.2569
28.1574
25.0334
30.358
29.4442
29.969
29.042
30.343
29.5907
34.7099
32.3543
32.7312
62.259
43.2288
40.8403
62.434
30.1875
43.3065
33.1072
31.3493
25.2744
45.2279
27.2537
45.3908
26.6757
30.1429
33.2884
28.9619
30.083
28.0924
31.0892
43.9136
37.9011
30.9537
36.747
50.639
40.7549
29.7264
41.9917
33.4917
36.5145
42.237
44.9052
36.5606
40.1221
43.0747
40.9988
53.6346
44.2512
43.8513
37.1467
38.0427
36.278
37.4163
39.7888
40.2889
42.8495
40.1658
41.7578
41.7135
36.3719
45.801
45.3219
37.2939
41.4361
41.9043
41.7817
37.3181
49.5273
38.5915
44.5525
38.5199
34.87
35.1899
36.2875
36.8132
36.9365
38.7884
35.5049
39.3011
34.913
34.8915
35.4571
37.3497
42.3355
41.0481
34.5777
35.1371
37.3213
32.9205
32.5766
32.9776
33.6222
33.8078
34.6348
38.3551
33.2821
36.0615
32.8882
35.5112
31.6778
32.3206
31.6907
40.7984
33.5514
40.1089
32.8619
34.4478
35.7715
39.5742
41.4942
37.1347
36.7679
36.7151
37.0856
37.4501
34.2564
34.6254
39.8047
31.4615
35.4013
39.5018
33.604
41.8489
35.7057
39.9018
32.1035
31.4632
34.6557
31.7424
32.1649
33.1327
30.4513
30.5252
32.5605
37.3533
35.8573
43.3512
34.6453
32.8184
44.0731
41.3584
41.0003
37.9542
52.5576
38.9314
39.1739
54.6054
36.5113
40.3964
37.6024
45.5369
85.9164
58.4102
169.266
81.4431
82.2488
70.3972
84.1497
110.813
117.702
70.049
112.338
72.3469
27.4412
31.9938
38.7092
27.0768
64.3256
32.7475
57.332
40.5029
50.6627
33.4703
34.9724
34.586
49.4937
46.1819
30.9609
30.4566
41.1537
37.2938
29.4099
40.0732
45.1774
31.7382
35.1901
46.0529
25.5942
35.8264
31.6009
31.4797
42.1287
34.76
30.8274
32.8279
33.1735
29.7788
32.0989
36.0714
36.0866
39.0641
33.4073
37.4213
39.7859
33.7251
35.0969
34.4598
29.8157
28.0445
31.9035
30.2661
24.6935
27.0846
34.8979
32.6663
36.5771
33.3965
31.7939
32.0787
51.7588
62.8445
40.2567
37.9599
49.1478
46.2459
52.3305
30.8846
23.5131
43.0218
23.2507
25.3681
23.6638
37.9893
53.9227
50.5361
45.1179
59.4848
48.1824
57.5178
32.8819
43.5112
41.9769
40.9959
42.6657
39.5307
69.4854
61.4078
58.6146
74.5118
55.5339
65.3753
50.1459
61.2727
71.7023
46.6782
68.3705
58.147
75.3776
82.3536
93.4774
176.514
122.782
47.7185
87.677
50.8163
42.7887
104.756
62.8202
174.562
114.059
93.6447
47.419
34.696
55.7748
55.7181
34.2607
34.6645
30.485
58.6686
45.028
51.4305
52.2853
60.1442
49.7431
53.6538
33.0351
32.9971
33.4479
34.6865
40.2297
42.0589
34.1481
42.153
32.684
53.1916
43.1792
32.9862
32.5353
36.526
31.5111
31.5918
34.6005
40.4286
36.2178
36.4933
36.5633
45.387
33.6952
43.1898
38.6035
37.6909
43.6876
37.8
40.5737
38.0802
40.6021
38.3023
42.2661
38.998
34.8216
35.1254
35.9436
34.9811
44.3221
34.3283
35.5884
34.0454
34.57
37.0747
33.6532
32.5738
32.3344
34.9886
37.9001
43.3844
38.4529
42.4397
31.251
28.9337
30.4412
31.629
32.5892
29.4383
34.2578
33.8241
24.1923
26.1491
32.0574
34.5741
34.8227
37.6417
33.2098
29.2199
31.9973
30.3334
53.3923
56.7459
58.317
59.9108
61.3889
55.4707
29.6176
36.6116
58.4385
57.5782
33.7233
47.4143
33.0805
38.064
32.0773
56.856
35.37
56.55
32.7459
41.3919
40.6079
35.4075
67.0503
46.2296
117.165
98.9134
73.3815
73.2844
39.0221
64.4339
34.9974
38.6458
55.0574
71.6344
117.602
60.4248
40.8182
42.0674
40.5974
39.1351
39.9566
49.0743
45.4851
47.5863
45.405
49.7515
43.4001
45.7114
42.7385
37.7561
35.6149
40.5663
40.3598
40.966
