# vtk DataFile Version 4.2
vtk output
ASCII
DATASET POLYDATA
POINTS 642 double
-173.406 265.947 91.395
160.733 252.117 78.7929
-193.309 -322.059 124.03
177.959 -315.893 128.598
-4.80178 -294.041 438.237
-6.87415 87.0398 379.296
1.3789 -176.58 -115.913
-2.94472 187.082 -252.621
296.704 29.2854 -95.5082
239.82 -53.289 275.535
-314.558 32.4619 -98.6886
-263.21 -57.166 277.599
-216.664 132.234 164.459
-151.086 29.946 359.814
-104.439 237.317 213.127
89.2961 236.05 211.611
0.506784 303.971 72.133
109.454 254.87 -115.968
-111.054 262.715 -119.422
-197.751 112.048 -181.142
-345.46 172.718 -67.1101
-318.208 -39.2024 53.0174
144.599 26.2403 351.066
208.385 110.34 164.698
-150.26 -216.181 390.777
-3.34806 -42.4529 443.47
-269.622 -205.235 -1.83408
-265.222 -227.407 210.49
-5.05764 71.0297 -244.963
-181.82 -125.56 -155.196
320.821 166.239 -66.5519
193.117 106.163 -185.158
246.686 -222.244 204.8
134.327 -211.107 383.496
97.5126 -374.128 325.625
-104.534 -377.674 330.077
-1.74211 -347.427 215.62
-177.511 -261.731 -40.5652
163.883 -262.057 -40.7645
171.366 -127.15 -147.107
256.305 -199.378 -6.13024
305.556 -34.5453 44.5202
-205.638 223.717 117.762
-164.714 220.225 190.237
-140.84 275.51 159.127
-217.73 -6.32129 327.496
-206.173 65.1191 285.234
-253.704 18.4968 246.654
-55.4018 178.683 298.841
-113.667 146.658 297.949
-60.3935 64.2264 391.864
-83.0527 291.653 155.671
-92.7391 304.886 88.4845
43.1605 178.19 296.929
-1.23903 230.773 233.048
79.8476 304.338 83.7333
69.0809 291.729 156.769
123.244 269.25 156.977
-60.6668 302.936 -15.0505
-177.901 251.405 -31.1275
168.093 242.568 -26.2306
53.043 303.067 -10.1439
-60.6108 239.945 -200.02
-4.1978 282.779 -130.851
51.0782 237.494 -198.522
-277.829 224.539 -83.4122
-294.794 208.104 -57.1429
-94.562 152.439 -253.576
-176.264 200.542 -169.154
-357.538 124.773 -86.9688
-312.403 152.62 -144.518
-292.331 94.8615 -153.569
-319.513 155.946 -17.6361
-327.471 25.1834 -38.5055
-351.628 125.611 -61.6171
-284.816 66.4804 73.7673
-292.161 -72.5233 189.529
140.857 210.703 188.083
183.101 213.543 94.44
48.0417 63.5008 383.96
103.679 141.048 293.6
234.296 20.7586 244.668
194.681 60.6985 279.398
203.516 -10.7695 321.995
-62.3153 5.87805 428.475
-7.50323 27.3738 428.616
-223.395 -112.614 332.775
-170.39 -49.9985 379.308
-2.3572 -193.606 438.873
-78.3297 -138.567 432.876
-93.7514 -253.391 434.513
-305.138 -143.281 150.428
-276.574 -140.545 246.454
-300.404 -103.945 -53.4258
-310.268 -116.076 34.7342
-240.421 -288.261 167.311
-290.549 -225.672 108.213
-244.139 -268.724 65.5039
-201.476 10.8174 -175.669
-255.172 -60.2755 -127.889
-4.41439 122.918 -274.353
-77.56 118.654 -254.172
-172.251 -148.531 -137.983
-120.504 -35.1772 -198.064
10.3136 -10.2647 -163.719
167.098 191.954 -161.017
87.1165 149.619 -250.712
272.269 203.697 -51.3915
257.904 222.699 -83.3498
277.924 89.1403 -147.796
292.9 148.882 -137.585
335.567 112.576 -84.1909
223.29 -280.037 167.995
174.107 -305.836 279.63
128.435 -352.816 251.683
208.954 -102.441 327.291
202.854 -216.138 312.97
257.925 -139.209 237.903
45.4641 -346.371 403.496
126.397 -292.506 384.521
80.8899 -253.183 431.091
47.4226 -391.393 285.215
109.64 -341.611 165.13
-54.7523 -350.217 408.324
-4.90472 -410.085 346.861
-120.977 -341.84 172.828
-56.7662 -392.43 289.649
-138.916 -358.912 254.561
141.302 -294.89 55.9974
162.983 -294.633 27.5157
-179.103 -296.724 33.0719
-141.669 -290.815 56.0867
139.972 -214.668 -86.3859
1.25224 -205.815 -83.5847
-141.445 -212.314 -85.1162
199.087 -250.355 -33.9233
230.325 -261.49 59.7609
150.204 -149.944 -139.519
163.93 -207.931 -105.971
288.979 -100.987 -50.5628
228.926 -167.438 -89.1518
249.388 -59.5771 -121.346
270.24 -221.66 106.139
312.179 15.8043 -31.0444
299.904 -107.47 18.6959
278.33 -143.115 155.745
269.922 -72.5185 183.023
66.1937 -138.004 430.726
161.464 -51.4187 373.894
49.8456 4.25956 420.534
-190.821 -311.216 286.105
-141.056 -295.285 389.847
-221.609 -218.582 323.417
-177.437 -209.645 -109.285
-207.235 -254.811 -35.7188
-238.627 -169.307 -92.8604
198.323 17.303 -164.605
98.0038 -49.7147 -207.274
69.3553 124.822 -253.829
267.742 52.5023 69.6011
325.977 109.382 -61.9201
293.745 153.535 -18.2124
-192.762 245.83 105.274
-172.657 255.311 147.423
-155.054 277.887 132.361
-182.277 188.463 178.279
-183.12 230.359 160.741
-208.014 197.922 125.422
-125.614 266.087 182.333
-156.698 250.601 174.874
-137.821 234.693 202.784
-242.26 -30.8303 304.073
-239.429 6.58517 288.897
-260.993 -18.4204 263.771
-187.477 46.9288 323.224
-213.833 29.5343 309.819
-190.877 12.7021 343.722
-242.678 58.0516 218.887
-231.415 43.4923 269.217
-213.626 91.0301 237.051
-28.0049 132.135 332.07
-53.9034 116.175 338.63
-35.3317 76.0853 390.211
-103.826 196.903 261.833
-83.2326 168.967 299.541
-77.6895 205.151 266.603
-99.7198 47.748 379.423
-90.782 99.1878 336.394
-134.485 76.2876 333.745
-177.124 141.852 231.896
-159.121 103.395 290.428
-137.864 183.339 245.104
-124.845 294.711 132.755
-133.799 292.676 96.0318
-99.7585 274.477 180.56
-111.204 288.018 159.85
-66.3775 310.993 77.213
-92.6569 302.227 126.914
-53.037 299.707 118.801
17.4548 133.333 331.73
-4.19714 177.787 299.555
54.95 233.81 223.775
25.738 204.193 272.667
64.4119 203.582 262.665
-34.8415 203.265 273.729
-66.7368 233.23 228.81
114.691 287.171 88.4861
107.792 290.138 130.065
137.573 269.798 129.65
46.8897 300.669 119.543
77.2819 301.653 124.85
58.4845 311.144 77.5448
108.109 261.673 180.28
94.2796 284.666 159.521
83.1221 273.56 180.093
-45.4872 267.133 183.661
40.9082 268.252 183.368
1.14126 286.911 154.466
-116.128 298.87 41.2208
-169.921 257.154 25.8454
-41.4719 310.104 34.0789
-77.982 313.316 39.6087
-143.523 261.766 -70.6608
-98.9893 295.152 -15.4526
-82.2768 292.863 -71.3891
162.463 246.837 18.2785
105.655 296.038 37.8907
73.9953 287.303 -67.6376
93.4497 291.885 -9.83551
145.083 249.32 -74.5699
69.7546 312.034 41.4311
35.9807 313.342 34.884
-31.5117 217.435 -230.234
-3.33116 241.735 -204.564
24.2544 216.731 -229.942
-55.5875 277.535 -127.842
-31.8051 263.457 -167.772
-86.5852 255.883 -164.29
76.8333 251.427 -161.216
23.4861 262.258 -167.357
46.0141 274.685 -127.573
-3.48309 303.39 -16.9768
22.6146 297.206 -78.0703
-32.4882 298.22 -78.6212
-250.316 229.05 -64.1997
-221.914 216.063 -9.31152
-206.797 219.644 -83.8924
-245.732 231.363 -64.2415
-320.71 194.357 -63.219
-287.801 219.716 -70.1569
-315.098 207.479 -76.407
-48.0701 171.52 -255.806
-77.8648 202.521 -231.283
-193.682 155.466 -185.576
-123.745 180.046 -223.068
-134.826 135.544 -239.228
-107.069 224.637 -196.538
-146.293 232.326 -154.191
-341.748 94.0298 -97.0422
-329.113 112.399 -125.166
-310.378 68.4263 -129.112
-339.705 168.103 -100.835
-342.808 135.604 -118.827
-364.689 143.286 -78.1306
-270.426 108.706 -167.7
-305.239 125.477 -151.12
-280.194 135.063 -165.528
-243.575 207.502 -132.075
-265.8 178.447 -152.83
-296.173 197.899 -118.462
-240.793 190.404 22.519
-335.248 167.268 -47.913
-313.779 180.843 -34.4054
-253.84 168.022 32.1686
-263.07 138.664 46.2207
-326.864 30.3697 -67.2931
-351.725 100.724 -70.0333
-330.385 71.5611 -28.1608
-345.725 98.3421 -58.0626
-323.241 1.20195 5.57368
-358.555 128.176 -70.0365
-358.267 139.314 -65.432
-274.001 -20.5328 225.072
-278.804 -61.6626 238.236
-263.339 79.6385 121.647
-266.821 24.9456 192.481
-303.537 -64.8332 127.177
-284.643 -15.5038 159.63
-304.247 13.6582 51.0296
-340.974 138.057 -35.2445
-327.107 111.506 -16.8196
-312.415 122.361 0.38815
151.982 248.222 143.076
176.887 232.409 86.2681
118.221 228.918 200.234
136.778 245.271 170.725
191.871 176.822 110.332
159.545 225.547 156.029
162.313 169.006 182.377
20.5044 76.5265 385.985
42.3212 118.512 335.215
126.386 74.2794 326.481
82.1198 99.5867 329.811
92.558 46.4159 367.95
71.6331 165.842 295.799
90.7391 192.345 258.542
238.378 -14.6915 261.994
222.504 5.67185 284.065
223.579 -29.4419 301.831
203.237 79.4317 238.035
216.964 42.0178 263.882
225.267 54.0692 220.177
178.687 7.48708 337.564
200.465 26.7291 302.729
175.728 43.5857 315.966
124.477 173.555 244.736
148.928 97.5891 286.758
162.839 126.981 237.055
-35.6352 47.0724 415.686
-7.82543 55.3811 409.905
-100.123 19.1028 398.012
-62.882 33.4515 414.5
-7.42757 -1.09683 440.134
-37.1022 15.8898 433.303
-36.5123 -12.1452 441.72
-249.989 -76.4363 304.51
-225.25 -50.9084 331.244
-162.524 -124.488 379.832
-199.605 -78.0396 358.609
-188.506 -164.677 354.93
-196.845 -27.4413 355.601
-164.028 -8.02686 371.641
-2.47921 -254.026 438.957
-56.5971 -235.685 439.68
-50.667 -275.423 438.55
-37.4433 -81.7398 435.626
-49.7792 -164.328 437.945
-1.01779 -107.91 443.979
-118.057 -242.596 419.141
-87.0342 -220.098 430.918
-107.257 -194.422 413.396
-112.518 -22.4629 401.803
-114.744 -89.7074 407.524
-69.1373 -45.9567 431.674
-290.204 -102.734 216.288
-273.468 -95.5853 262.129
-308.524 -100.974 116.5
-304.556 -107.006 172.013
-271.042 -185.257 231.891
-296.893 -138.347 197.459
-289.398 -182.686 172.137
-308.573 -48.0377 -74.5024
-319.602 -54.5243 -41.1825
-292.162 -161.175 18.5308
-311.754 -107.835 -19.1912
-282.561 -150.937 -31.9312
-322.232 -66.105 -3.7918
-320.683 -80.8021 46.9431
-219.591 -307.387 146.153
-248.74 -281.346 115.051
-221.473 -297.685 96.3791
-284.225 -229.17 147.137
-270.736 -256.935 132.027
-255.045 -260.777 188.046
-259.96 -238.419 30.9237
-271.093 -250.096 88.733
-283.154 -219.638 62.0413
-308.638 -144.321 94.7575
-302.484 -183.784 83.8847
-306.372 -191.054 123.598
-275 29.0511 -140.43
-286.684 -14.8999 -113.993
-209.321 84.6273 -176.511
-257.185 61.3496 -163.896
-214.662 -98.1236 -143.404
-234.208 -23.4617 -153.412
-186.964 -65.4355 -171.439
-3.4282 141.514 -276.528
-44.8233 132.287 -272.356
-33.7363 90.25 -253.719
-37.4704 119.994 -266.727
-5.25518 108.791 -264.496
-89.6168 128.297 -258.497
-129.402 127.003 -236.62
-121.907 -163.202 -121.672
-125.348 -104.694 -147.837
3.38586 -127.131 -113.651
-161.646 -82.7084 -172.016
-166.308 -91.2867 -166.78
-177.341 -138.746 -146.817
6.25628 60.0796 -230.879
-101.48 -22.8387 -213.524
-48.9997 34.7721 -223.708
-130.231 74.1529 -206.515
-79.9456 36.6328 -221.059
[...]
POINT_DATA 642
SCALARS Mean_Curvature double 1
LOOKUP_TABLE default
0.0102586
0.00998934
0.01257
0.00755379
0.00905782
0.003923
0.0670709
0.0093037
0.00232984
0.00835786
0.00438144
0.00852604
-0.00232096
0.00413816
-0.000781727
0.00507688
-0.00450995
0.0039058
0.00254098
-0.0101653
0.0370524
0.0117981
0.00505454
0.000433574
0.00170605
0.010404
0.00657191
0.0050219
0.0258393
0.0302216
0.0412053
-0.000701728
0.00406318
0.00136232
0.015137
0.010496
-0.00505195
-0.0298646
-0.0192618
0.00765839
0.00819567
0.0137929
0.0174847
0.00998148
0.0151739
0.00923308
0.00720969
0.00576634
0.00955848
0.00648675
0.00786251
0.0120996
0.00306812
0.0107435
-8.73748e-05
0.00513746
0.0169073
0.0147981
0.00302339
-0.00228635
-0.00363774
0.00423779
0.00894373
0.00826603
0.00910325
0.0188111
0.00421926
0.0130845
0.00326608
0.0200264
0.019307
0.0083168
0.0131155
0.000696542
-0.00637204
-0.00188498
0.000861905
0.00384181
0.00117543
0.00460924
0.00613264
0.00850996
0.00774864
0.00871523
0.0125632
0.0114755
0.00496046
0.0080319
0.000752558
0.0119691
0.0183083
0.00527553
0.00593572
0.00897627
0.000767059
0.00908653
0.0114541
0.00455475
0.000951819
0.00493851
0.0406982
-0.00352307
-0.0113856
-0.062198
-0.0109409
0.000263526
0.0152558
0.00549681
0.0220559
0.00834302
0.0157435
0.0397847
0.00708873
0.00536538
0.00409434
0.00696148
0.00991885
0.00750947
0.00806198
0.0121327
0.0213578
0.00831866
-0.0221122
0.0116287
0.0251261
0.0117841
0.00146966
0.00476497
-0.00595188
0.073259
0.062954
-0.00329431
-0.00250096
-0.0247954
-0.00317686
0.00699486
0.00604004
-0.0167089
0.0674463
0.0100319
0.00937695
0.00934924
0.0135088
0.00583801
0.0130374
0.00300256
0.00238938
0.0100876
0.0106402
0.00970209
0.00713838
0.0107558
0.0125815
-0.044579
0.00801933
0.0081839
-0.00228082
-0.00218873
-0.00415755
-0.003492
-0.00552686
0.0105441
0.00801018
0.0137262
0.0146692
-0.00194349
0.0155079
-0.00131787
0.014906
0.0135306
0.00972089
0.00672319
0.00738246
0.00755366
0.00735131
0.00876933
0.00870909
0.00293675
0.00710298
0.0039483
0.00211716
-0.000482563
0.0117928
0.00858871
0.0107401
0.011333
0.00270697
-0.002553
0.00293538
0.000219794
0.0001846
0.0034492
0.0172089
0.00745479
0.0110182
0.0189353
0.0115859
0.0171047
0.000970868
0.00492004
0.00415384
0.00138875
0.00780787
0.00968957
0.00499345
0.00261532
0.00284271
0.0156525
0.013264
0.00281746
0.0196316
0.0142912
0.0134999
0.0170503
0.015285
-0.00084559
0.000704723
0.00551593
0.00802262
0.00175373
0.00347489
0.016678
0.00595505
0.00377876
0.00948981
0.000303582
0.0103577
0.00582715
0.0042083
0.00115764
0.0158032
0.00937283
0.00970641
0.00804592
0.0112941
0.00408589
0.00593006
0.00934767
0.00772482
0.00662903
0.00395316
-0.000612347
0.00747363
0.00684181
0.00269021
-0.00846943
-0.0170655
0.0443368
0.00778269
0.0397039
0.0351784
0.00544479
0.00966631
0.00577896
0.00599972
0.0310873
0.00830407
0.00794678
0.0094187
0.00631439
0.0108896
0.0143
0.0294525
0.0530403
0.011114
0.0156294
0.0146031
0.012215
0.0109468
0.0136231
0.000360703
0.00830988
0.00998707
8.38768e-05
-0.00476684
0.00777123
0.0316534
-0.00418226
0.015064
0.00517209
0.0471483
0.0269608
0.00482542
0.00523265
0.00350767
0.00428566
0.00166267
-0.000123618
-0.00317204
0.0242748
0.00637514
0.00543557
0.0133113
0.0115477
0.00806029
0.0143565
-0.00300628
0.0117625
-0.00334659
0.0100347
0.000417174
0.0036937
-0.00205132
0.00212407
0.00868918
0.00680781
0.00625122
0.00788461
0.00957138
0.00540099
0.00977582
0.00474897
0.00766734
0.00866681
0.00697211
0.00428711
0.00147073
0.00110698
0.01514
0.00929477
0.00659089
0.0110221
0.0136754
0.0166797
0.0156704
0.00936316
0.00618511
0.00215024
0.00688395
-0.00259838
0.00941422
0.00679837
0.00048137
0.00667013
0.00749966
-0.00305997
0.00282842
0.00986391
0.00792872
0.0086606
-0.00433123
0.000778249
-9.54764e-05
0.00938858
0.00538992
0.00775043
0.00194454
0.0113024
0.00319774
0.00973861
-0.000992703
0.00911269
0.00958429
0.000366307
0.0121713
0.00136911
0.00670583
0.0100173
0.00746421
0.0105123
0.00612251
0.00801585
0.0106327
0.00482884
0.0063241
0.00911773
0.00652381
0.00365689
0.00765747
0.0174348
0.00149677
0.00438816
0.000594426
0.00861611
0.00205779
0.00357944
0.00785956
0.0209432
0.0337311
0.00532245
0.00182245
0.00131725
0.0512562
0.00287124
0.00319213
-0.00317167
-0.00804048
0.0574842
-0.0357143
0.0446379
-0.00356291
0.0276674
-0.0149348
-0.00632777
0.00496287
0.0119207
0.0083526
0.00625641
0.00653349
0.00751179
0.0607184
0.00585264
-0.00351512
-0.00577169
0.0103319
0.0383017
0.0246073
0.00226397
0.0256518
-0.00637949
0.0096748
0.0169972
0.00854611
0.017201
0.0179732
0.011703
0.0526003
0.014783
0.019255
0.0165784
0.0116056
0.0119553
0.00584751
0.00942029
0.00529631
0.00371941
0.00925417
0.00596935
0.0114382
0.00721622
0.0102403
0.00591744
0.00597882
0.00236503
0.00775522
0.000752617
-0.000685635
0.00402351
0.00416105
0.00444632
0.0129654
0.0131848
0.0111105
0.00945795
0.0102506
0.00658024
0.00654606
0.0178294
0.00849696
0.00607714
0.00607289
0.00488322
0.0153472
0.0199126
0.0250421
0.00687865
0.00402844
0.0152309
0.00205665
0.0167506
0.0132131
0.0137695
0.0117584
0.00688623
0.0131232
0.0088188
0.0266723
0.0173853
0.00491898
-0.00223285
0.0117274
-0.00135092
0.0131508
0.0132217
0.0267406
0.0282149
0.031029
-0.00733385
-0.0876624
0.00768856
-0.00404966
0.0705423
0.0749981
-0.0755565
-0.0102325
0.0259306
0.0498294
-0.00469152
-0.0612525
0.0341957
-0.0200642
-0.00171806
-0.00409445
-0.0218978
-0.000978065
0.00559218
0.0030477
-0.0173921
-0.00590077
0.00149398
0.00756568
-0.0088609
0.00479994
0.00424914
0.00452982
0.00578121
0.0559175
0.0172598
0.00538902
0.00750124
0.0101254
0.00437935
0.00262332
0.0253199
0.0179491
0.0693684
-0.0433919
0.116787
0.0100065
0.00772567
0.00764571
0.00709214
0.00429881
0.00472696
-0.000559931
0.00367027
0.0095416
0.0175913
0.00876367
0.00786785
0.00926723
0.00519284
0.0104301
0.0112798
0.00855166
0.0039784
0.00920523
0.00985554
0.00720417
0.0128057
0.01345
-0.00504723
0.00543659
0.00241479
0.00236814
0.014987
0.00127992
0.00799597
-0.000772037
0.0101043
-0.00411795
0.010871
0.00999263
-0.00383955
0.00287603
0.00446579
0.00491785
0.00975237
0.00675765
0.0102408
0.00698656
0.00377276
0.0139151
0.0152546
0.0164821
0.00794831
0.00121134
0.0032093
0.00511216
-0.00104606
0.00542897
0.00938516
0.00778534
0.00712441
0.00456271
0.0112561
0.0119536
0.0193322
0.00888489
0.00885521
0.0046038
0.00390117
0.00386824
0.00266684
0.011229
0.00757883
0.00525463
0.00584848
0.00249532
0.0112047
0.0705624
-0.0352504
0.0683773
0.005457
0.00903262
0.00467605
0.0267545
0.0738376
0.006739
0.00683088
0.00416911
0.00483318
0.00748021
0.0309102
0.00640312
0.0111341
0.00249486
0.00412691
0.00149087
0.00678954
0.0103082
-0.00475286
-0.0167485
0.0395628
-0.0475844
0.0390111
0.0362295
-0.0231668
0.0804238
-0.00351217
0.00348187
0.00638622
-0.00189929
-0.00613391
0.00432606
0.0023174
-0.000770448
0.00244213
0.00230199
0.0297029
0.00253158
0.0505812
0.0218199
-0.00920295
0.00468569
-0.00455204
0.00211858
0.0116457
0.00820442
0.0054852
0.0133276
0.00533176
SCALARS CoVolArea double 1
LOOKUP_TABLE default
2451.2
2431.78
1704.02
1815.76
1518.22
1647.26
2630.96
1840.63
2141.44
1432.36
2202.75
1330.88
6181.08
2348.3
1776.74
1684.71
3085.85
3375.25
3660.64
2448.28
943.966
3252.88
2340.64
5833.46
2822.53
1813.92
2538.12
2901.15
1505.41
1471.21
728.067
1497.37
2623.41
2981.09
2080.38
2291.84
4917.7
642.347
399.956
1947.93
2427.14
2391.34
2215.83
2109.21
981.208
1520.02
2582.05
1932.34
1991.17
3028.2
1925.77
1858.19
1579.79
1902.72
3594.52
1440.6
1521.05
960.235
2665.71
3623.36
3541.63
2705.49
2193.97
2558.85
2133.47
1804.13
2152.65
1915.14
3595.25
821.193
1823.2
1653.95
1869.1
2452.77
834.99
5047.44
2558.97
2268.31
2467.36
2179.03
2860.32
1619.91
2193.17
1347.29
1625.97
978.841
2721.98
2923.56
3531.7
3301.73
1367.43
2224.96
2407.72
2099.09
2711.09
2222.87
1603.66
2081.7
4732.82
2879.03
645.502
2518.7
1580.92
1415.12
12644.2
4187.48
1816.04
1514.35
1413.52
1422.15
1795.46
770.063
2036.51
2561.8
2233.69
2540.68
2372.46
2041.81
2291.71
2083.84
1210.88
1462.39
1341.01
2215.33
1750.45
1312.26
1473.74
2328.52
5771.9
1037.57
803.373
6637.86
2892.86
8442.81
3201.15
1657.73
1939.66
903.366
716.686
1823.71
1984.33
2573.55
1557.72
2120.14
2103.1
2664.53
2837.31
3356.99
2242.88
1999.16
2582.84
2292.08
2369.21
504.235
1763.75
2156.28
5017.74
1776.2
2918.07
5371.03
1098.52
1700.81
2723.62
1249.05
1376.35
3246.97
1443.25
3780.45
1082.98
1068.29
1809.04
1566.38
1596.48
1666.43
2273.53
1485.81
1545.39
3736.3
1864.81
3496.87
2458.25
2319.71
1599.18
2098.08
2043.99
1722.8
2359.78
2912.99
3179.29
3755.89
3803.79
3381.5
1219.71
2391.01
1643.13
903.344
1887.2
1255.05
2978.07
2375.75
2334.27
2355.25
2251.87
1696.39
2378.26
2759.8
2568.24
1302.43
1613.48
2707.75
1149.84
1605.38
1038.92
902.251
1368.59
3381.19
2936.71
3030.93
3309.38
3857.13
2697.63
1871.15
3831.31
3400.65
3144.08
3493.73
2914.14
3582.9
3482.82
3941.08
1656.08
2544.4
2138.94
2207.15
2076.01
2682.73
2315.48
2474.36
2564.31
2266.9
2849.39
3403.38
3227.22
3131.42
1997.11
3976.65
3950.03
1629.37
711.684
516.943
1253.75
2198.71
2310.19
3907.19
3129.5
2049.75
2702.67
3815.63
1803.85
1365.77
2225.62
1860.95
1239.28
796.676
1663.57
1072.07
2255.36
3432.65
2994.07
2323.53
3541.65
913.214
1932.2
2916.67
5276.66
2447.33
1188.5
2571.17
1156.67
2608.25
315.711
565.005
2484.26
1843.77
5658.58
3808.47
3655.44
5029.12
5497.75
982.134
2829.12
2872.46
1312.06
2195.63
1797.12
1043.82
4962.78
2141.67
4110.21
1665.33
2379.47
2966.94
2962.57
2588.64
2079.45
2124.34
1608.62
1366.14
1364.23
3146.51
1439.49
2834.96
1448.12
1386.48
2096.24
3219.01
3321.15
3492.93
1049.54
1119.87
2081.63
1256.25
1013
933.1
1560.97
1959.74
1883.08
4263.81
2603.54
3076.27
1664.42
2152.95
2324.86
2358.91
1821.7
2772.11
3155.68
2986.95
1349.84
1857.93
3547.68
3034.39
4497.74
3038.33
1827.38
1957.89
2736.55
1925.78
2709.47
2136.98
2620.84
2660.31
2351.08
3082.75
2285.82
2391.26
2711.38
2863.89
2149.83
1751.81
1871.13
2146.97
1722.64
2375.62
2014.18
1699.63
2345.43
2610.56
2477.45
2051.8
2674.05
2807.72
3678.11
2838.48
2617.3
3311.1
2795.99
1673.95
1224.41
1966.59
802.372
947.694
814.779
2150.77
3707.55
8124.01
10110.1
1046.69
1519.61
353.437
4132.02
5543.44
1796.5
5439.67
3643.75
3814.67
2288.18
2130.68
3364.92
2993.51
1577.09
3196.99
3619.82
2888.99
1812.5
1119.83
625.292
699.92
1788.2
2652.81
1870.44
1162.5
1575.45
2008.24
1159.27
1296.19
698.421
1307.51
1623.62
2918.15
2136.02
3139.06
2063.75
2341.61
2423.65
2777.33
2307.14
2098.76
1511.13
2054.44
2080.15
1790.57
2481.36
1955.77
2500.37
2751.1
3246.07
2332.61
2389.47
2683.05
1931.1
1979.07
1734.92
2341.59
2165.24
2380.11
1445.31
1435.73
1744.15
2990.67
2544.43
2756.58
2248.98
1914.11
1506.96
1674.33
2521.92
1763.19
2809.76
1855.46
2044.22
2069.97
2147.62
2390.99
2183.14
2105.48
1781.95
2155.11
2679.87
2909.04
1755.29
2901.31
1712.73
1595.91
1569.11
1325.83
1275.91
1787.48
865.476
1892.27
9326.23
1871.32
424.429
617.505
1524.02
1501.72
686.044
2048.44
1178.51
444.62
2557.65
9834
3687.96
6754.26
3753.57
2991.72
4163.73
914.855
1272.12
4284.34
3268.09
12498
8860.46
8707.33
2083.07
2060.45
784.492
1357.92
1856.73
1856.73
1828.05
3247.08
1162.53
1211.65
492.632
640.636
540.444
353.945
2438.1
2208.76
2458.64
2057.48
2035.21
2144.37
2642.55
2215.77
2017.95
1447.83
1783.22
2032.6
1783.31
2297.59
1629.85
1591.58
1902.65
2414.3
2134.34
2512.77
1938.67
1903.48
1705.71
2683.14
1678.46
2066.2
2223.9
1674.03
3126.21
2002.58
3129.02
2447.83
3361.54
2281.62
2097.54
3558.6
1831.8
2710.95
2380.29
1494.9
1927.94
1322.12
2177.14
3690.72
1133.09
1615.28
996.277
1504.44
2303.17
4153.4
3036.38
3436.02
2640.05
2312.46
2197.41
2493.33
2881.65
2035.55
1774.87
1631.19
2307.37
2547.6
2624.09
2816.67
2447.76
2472.8
2263.7
2853.3
2658
3045.43
1625.97
372.147
856.741
540.728
877.56
2051.27
2081.51
2157.85
1357.93
672.694
2557.72
2019.04
2375.36
2195.89
2267.91
1311.2
2216.58
1739.78
2381.06
3301.45
3215.21
2531.78
3056.1
6324.83
1610.75
3633.56
751.817
1637.09
1129.42
1790.12
599.218
731.6
2236.53
4990.76
4782.47
6295.93
2646.17
4376.4
4852.33
3818.54
5211.66
1015.9
592.395
305.706
942.336
2145.08
2376.84
4924.02
2825.48
1501.24
898.883
3027.41
1269.65
3183.46
SCALARS SignedDistance double 1
LOOKUP_TABLE default
72.0818
84.2205
75.5735
70.7928
64.7889
80.7542
194.296
56.176
69.2996
77.3117
67.625
72.8123
81.5666
76.1604
81.9336
81.8115
72.2014
68.5348
65.538
85.9696
69.4722
77.3783
76.7684
82.4667
71.0276
70.6912
69.9323
67.8765
99.1493
93.2746
73.4737
95.354
72.0665
73.5501
57.5036
55.3097
122.973
89.9553
89.0694
80.0399
73.2032
78.6361
86.6121
84.2072
67.5688
71.5834
75.8586
76.7535
75.9664
77.6282
75.3694
73.2238
70.7839
74.7212
79.6165
70.4465
72.9558
70.6876
71.1398
78.3699
84.469
70.9996
57.6255
63.5625
58.0011
73.6079
71.6666
62.1402
68.9996
71.7821
54.3917
64.2998
81.5044
77.5656
76.3961
85.6883
77.186
87.0244
90.7943
78.1135
78.3263
79.2754
77.1918
74.4864
69.7928
71.2526
69.9964
70.1728
67.728
67.8199
68.2769
74.2244
71.4306
66.6568
77.5367
63.7
66.6267
68.7657
76.985
70.2139
79.4125
78.4927
91.0781
110.68
159.299
75.9271
64.3548
74.7854
72.8766
67.3843
55.8357
76.6424
68.352
66.3427
67.4273
72.4491
71.7773
76.0439
53.407
65.1214
71.1879
81.7146
95.6905
50.356
68.0494
96.7715
84.9737
69.2388
91.4144
93.1987
94.1776
103.318
92.7687
194.172
103.488
70.1437
69.4676
88.3937
89.2947
68.2884
68.5158
70.5773
70.987
83.5967
74.9095
79.5357
80.2521
69.1807
72.0954
73.5837
62.4915
59.398
66.3144
94.1404
71.9541
66.8202
76.3816
126.446
74.5354
94.5377
78.358
83.5624
77.6039
69.8199
65.3248
86.0153
77.8398
88.1718
71.5395
72.4625
79.8926
73.044
74.4841
74.5481
74.173
73.5271
72.5033
78.5433
75.7571
79.3565
87.7688
87.6839
77.3227
73.9349
73.9166
73.4212
76.8315
83.1238
80.3548
80.5151
81.5531
77.303
64.8033
66.2406
74.5763
70.4311
74.0938
70.3838
71.7832
87.7473
76.0477
82.3026
74.972
75.3413
74.8553
81.3996
69.7943
66.2764
70.1253
72.1795
69.7749
72.9503
73.3208
69.2205
73.5198
77.1448
79.7889
73.2639
66.4904
76.0404
75.998
68.3057
68.6826
66.4305
64.0559
85.5395
69.1722
64.917
68.6191
76.7566
66.4232
75.825
55.1722
57.7273
54.7509
62.4668
60.5312
59.6463
61.2003
61.7041
63.06
71.6571
65.2067
66.2612
88.6803
79.2749
79.7513
91.926
68.3633
74.0662
69.1746
59.3637
55.132
74.7153
57.946
75.6512
57.3039
62.6012
63.393
60.7202
64.751
49.8835
61.8534
76.027
72.4557
64.1029
70.2066
81.9496
69.6206
56.9988
85.0612
71.2813
75.0693
86.7116
87.4026
71.1149
75.4744
78.3866
75.7118
82.3793
78.1767
77.4288
77.2456
76.6658
78.298
78.0277
79.0794
80.9332
84.2
82.3715
83.5025
86.3933
75.0922
90.2939
82.9759
76.5602
86.1702
83.5397
86.2222
78.5926
87.7812
80.1676
83.8028
78.965
75.4676
76.3114
78.036
76.7996
75.6794
81.1699
77.1812
81.7163
75.025
75.6877
76.5124
79.4291
82.4962
83.6269
72.8589
74.2581
75.5578
71.994
69.241
69.5021
68.3524
71.5205
71.8661
72.6659
70.1115
73.2486
70.7446
73.5902
65.5686
66.2859
65.1079
75.3592
68.1305
75.2706
70.4555
71.2792
71.8316
75.9935
77.2148
73.3816
74.6544
72.722
75.9318
77.0377
70.8439
70.09
75.1445
65.1921
70.463
74.8014
70.3863
74.322
73.2878
77.7866
65.595
66.6982
69.1341
67.5968
65.9463
66.8568
67.3776
66.6193
68.3096
76.0331
73.9945
76.9889
69.5742
68.4998
83.4997
73.5658
71.2117
70.7952
75.5678
71.1435
78.4802
89.6516
78.6679
80.7628
76.9435
75.6457
117.038
107.107
179.714
92.1164
90.4143
93.238
103.324
132.979
127.848
95.1005
126.799
96.4322
56.885
59.7775
73.2137
58.9313
82.0824
61.6256
89.0473
85.7111
83.8626
72.1663
74.5058
70.8876
84.7951
87.1977
66.9946
65.1551
69.5909
68.5465
63.2452
71.804
78.6803
59.8318
58.1692
78.5663
54.3307
63.4437
67.9644
67.0827
70.0902
70.6765
66.2532
69.8712
68.9635
64.5364
66.8507
74.9154
74.631
78.9366
70.9311
75.5023
76.0104
72.9463
73.4938
71.6602
59.0307
56.8627
65.0549
59.6511
55.5524
54.3833
73.0508
67.7904
72.5988
68.1582
67.6438
66.2137
84.2201
89.9726
73.0662
74.3851
95.7692
88.4902
93.2332
58.709
50.073
67.3773
49.1477
52.6698
50.5448
63.3863
91.724
87.5706
71.8639
97.962
92.4581
102.068
65.9353
79.3334
78.5073
82.3383
85.426
83.6537
94.0511
81.2208
106.055
100.856
92.3877
90.8802
91.3805
89.9777
91.703
94.509
93.7103
93.2598
90.9414
119.586
122.609
184.757
147.093
91.7511
112.598
88.579
91.0939
126.863
100.883
183.91
139.877
124.114
72.3796
70.769
90.3083
82.5846
70.7271
69.369
68.0747
98.7451
92.1028
85.6115
88.5794
90.5154
87.8321
90.3678
67.4885
69.623
70.1798
70.6969
72.3165
75.2373
73.8468
76.7461
69.7006
82.352
72.4715
68.9813
68.7689
73.2514
68.9858
67.9843
70.8552
75.341
72.465
74.7004
75.2031
81.1882
72.2356
79.971
79.4486
79.4683
78.6931
75.4926
83.4206
79.5164
82.1566
78.7522
81.1752
78.8204
70.5456
72.5773
73.2473
69.2495
79.4619
73.4279
74.6123
73.2013
72.2364
73.6833
73.6846
70.1833
71.0949
74.7432
77.8089
77.0264
77.3772
77.8914
66.1419
61.5316
63.0827
65.7616
67.6601
55.9837
70.4369
65.5051
53.4723
55.584
69.3892
69.9731
71.9679
75.5098
68.5056
61.5771
66.0018
64.4838
100.871
91.4755
97.9038
90.5584
92.9392
75.2233
66.5002
69.1606
89.1023
92.2826
68.2942
71.0503
70.4162
70.1318
68.1878
89.1888
68.3843
77.9275
70.1486
72.685
75.8402
70.4873
87.7089
94.7463
142.556
137.539
90.907
93.637
78.9921
79.3947
75.3463
78.212
88.7683
92.9804
127.085
88.9153
81.7916
84.9155
83.286
82.4458
83.1335
78.3515
77.1612
79.2672
77.2927
84.8097
89.7282
88.7043
88.6378
78.9553
74.7572
84.0773
83.042
86.8553
