# vtk DataFile Version 4.2
vtk output
ASCII
DATASET POLYDATA
POINTS 642 double
-148.612 236.567 92.6723
126.258 219.807 76.4622
-179.665 -286.76 130.889
160.468 -286.8 133.336
-5.68963 -290.715 401.465
-8.46528 54.858 348.828
1.81166 -144.727 -79.1027
-3.57249 170.858 -224.907
262.652 39.2401 -80.0066
200.035 -57.0508 259.589
-282.083 44.3443 -81.8467
-226.706 -63.0464 260.58
-178.314 111.203 149.087
-131.26 8.61505 328.237
-94.1175 202.035 178.737
73.424 203.148 176.834
1.53994 263.331 66.7545
93.64 221.139 -104.52
-95.9731 230.255 -108.484
-172.046 109.338 -139.686
-317.427 153.131 -79.5732
-277.175 -45.3423 42.1408
124.371 5.52483 318.919
170.626 86.9666 150.475
-127.382 -220.658 358.022
-4.88371 -41.3488 403.671
-236.098 -188.415 10.3299
-231.407 -214.643 198.943
-3.6879 83.4576 -216.059
-171.089 -113.205 -127.129
289.597 147.946 -82.4441
185.133 97.6653 -172.597
210.213 -208.666 192.586
108.529 -213.198 350.234
79.6833 -348.995 318.568
-89.6584 -353.988 322.535
-0.529288 -302.352 241.294
-194.12 -238.176 -25.5167
178.75 -238.072 -24.0579
157.833 -118.744 -123.52
220.611 -182.625 3.60845
264.24 -38.9422 31.4157
-161.952 208.84 102.246
-131.014 203.682 162.626
-124.257 248.435 141.51
-188.832 -17.9581 302.847
-178.708 40.9332 264.385
-215.694 1.54747 233.353
-51.7915 152.236 266.065
-92.3089 125.398 267.129
-45.2395 37.1081 364.042
-84.9956 256.135 136.823
-84.4568 265.303 86.0151
35.875 152.484 265.244
-2.00472 192.722 206.858
66.331 266.924 80.6161
68.9208 256.232 137.938
101.945 243.033 139.722
-58.2844 262.921 -9.92114
-163.45 210.691 -29.2067
150.844 196.938 -23.7867
47.9122 263.627 -3.06055
-54.6806 214.403 -181.01
-5.15635 249.029 -117.76
42.9098 212.261 -180.147
-270.849 191.925 -75.6697
-277.186 180.874 -75.6963
-83.2497 147.171 -223.107
-161.294 180.146 -143.075
-326.995 134.263 -82.1849
-295.561 145.168 -120.087
-274.196 102.011 -124.282
-288.816 140.891 -48.1702
-286.243 34.3812 -36.7632
-320.96 132.435 -86.2109
-240.423 60.1138 57.1887
-250.471 -81.9187 180.252
103.844 192 159.82
138.126 192.983 78.4265
29.7947 37.1281 354.693
81.6261 119.22 263.348
193.513 5.62844 233.012
166.591 36.6508 258.564
172.981 -23.2938 297.139
-45.5164 -4.7552 395.573
-9.69127 8.01561 393.833
-195.004 -108.988 305.233
-150.671 -54.0018 345.637
-3.03758 -193.618 400.208
-64.6614 -139.922 397.809
-81.0304 -255.327 398.65
-264.317 -139.097 144.185
-239.806 -134.854 229.906
-270.085 -89.9121 -38.8516
-270.025 -104.642 37.6305
-214.947 -265.009 163.248
-257.507 -209.34 110.58
-219.093 -241.415 75.8794
-185.042 14.1809 -135.999
-230.317 -49.5081 -97.3457
-5.56059 144.306 -240.338
-66.3729 142.44 -219.369
-197.444 -136.057 -115.574
-115.395 -30.9436 -175.57
15.4689 29.6082 -120.105
151.146 171.66 -131.612
77.6959 146.157 -223.014
252.686 174.052 -70.7055
245.282 185.202 -81.6076
256.986 99.1689 -118.425
273.723 140.154 -115.536
302.475 117.223 -83.0008
194.311 -255.623 164.383
145.138 -285.519 268.443
110.397 -321.711 252.902
178.041 -98.4018 301.547
169.219 -209.481 291.589
219.165 -136.171 220.342
34.5073 -328.487 381.669
99.5341 -281.479 363.044
64.0517 -256.635 395.915
48.4039 -351.451 306.201
116.424 -306.857 175.634
-46.3751 -333.87 388.395
-6.55109 -375.929 343.165
-119.641 -303.045 181.165
-63.6784 -355.763 317.716
-122.222 -326.639 259.149
170.365 -274.191 72.9992
166.389 -263.724 41.7186
-178.996 -269.252 46.328
-171.121 -247.302 79.8392
158.718 -181.83 -52.9246
7.64412 -206.936 -75.0769
-156.52 -177.356 -49.2556
180.763 -231.567 -21.9385
203.755 -234.436 68.4697
161.7 -136.311 -114.793
172.551 -184.898 -75.1863
257.622 -86.7756 -36.2811
202.719 -152.765 -66.7178
227.818 -49.0956 -90.9017
232.764 -207.559 107.78
272.676 24.7199 -25.4799
260.784 -93.7122 17.3971
233.599 -139.838 152.439
226.324 -80.9294 173.421
51.2533 -139.246 395.806
139.688 -56.2148 340.689
29.9374 -6.38202 386.504
-164.226 -291.066 277.308
-118.452 -283.791 369.335
-190.8 -213.051 303.506
-187.265 -183.323 -80.1523
-194.502 -237.797 -25.0472
-213.53 -154.524 -71.5732
181.106 24.4423 -126.261
106.24 -25.7281 -177.651
59.9397 145.42 -223.205
219.588 40.1388 48.8348
299.966 106.282 -83.9317
260.648 137.93 -48.5819
-159.395 222.12 99.2879
-145.32 233.876 133.953
-133.67 249.914 125.021
-139.488 172.814 157.965
-147.49 217.504 139.798
-162.644 186.308 104.347
-114.627 240.431 155.249
-133.781 230.263 151.338
-118.48 209.55 171.367
-208.279 -39.7618 281.814
-204.865 -8.05175 269.565
-223.783 -29.7436 248.783
-165.27 24.2003 296.876
-185.054 11.1428 287.173
-168.085 -3.75425 314.883
-205.962 36.8817 205.879
-198.028 23.3847 252.757
-179.719 67.0836 220.851
-23.4511 100.524 291.721
-39.8175 83.8124 300.152
-29.0575 44.9422 360.776
-86.2707 170.714 236.154
-71.1387 146.389 268.136
-69.7978 174.294 241.702
-79.7584 23.4124 349.943
-75.2395 71.0204 300.04
-115.276 49.8945 302.53
-145.758 118.762 208.244
-132.111 76.5938 261.745
-111.454 162.229 219.216
-113.616 260.918 124.725
-118.103 260.025 97.0998
-97.6938 244.414 153.161
-105.393 254.772 140.421
-67.4336 269.098 71.5904
-91.4676 263.343 118.191
-55.9973 260.386 109.45
11.4513 102.485 291.518
-4.53205 151.248 266.623
49.8906 195.916 194.489
22.7572 171.534 246.803
52.9266 172.6 237.302
-34.0635 170.653 247.701
-63.204 194.977 200.831
93.2582 254.866 88.4437
91.3222 257.745 123.14
111.266 242.35 123.067
50.2757 261.088 110.096
72.7365 263.103 116.525
57.2241 270.319 71.6913
91.6842 237.871 153.69
83.2851 253.439 141.457
77.9335 244.553 152.609
-47.2054 233.405 156.42
42.8906 234.168 154.155
1.48845 251.068 134.845
-99.5616 266.132 43.8455
-145.745 221.937 28.0824
-44.3543 266.567 35.8473
-74.2577 275.402 41.1811
-125.991 228.612 -61.2154
-86.707 260.86 -9.07552
-72.4078 259.533 -63.6657
133.601 207.476 18.0653
85.1698 263.84 39.8231
61.7178 253.781 -59.1271
77.9282 257.821 -2.29825
127.428 211.018 -67.8735
62.4424 275.099 43.0156
37.9773 270.166 36.7258
-28.6133 197.348 -207.352
-4.1501 214.947 -185.542
19.6072 196.847 -207.462
-49.0747 244.732 -115.483
-29.4757 233.062 -152.265
-77.0001 227.036 -150.508
64.971 222.312 -147.299
18.8574 231.351 -151.636
37.2843 242.752 -115.518
-3.25986 262.883 -12.9267
18.4075 261.091 -70.5255
-30.4324 261.366 -71.2941
-239.624 195.77 -61.8573
-193.487 193.653 -28.5034
-197.782 182.466 -58.8698
-238.674 196.062 -60.3514
-302.18 172.222 -81.0287
-274.104 191.374 -77.1395
-294.533 177.291 -82.2831
-42.74 158.065 -227.599
-69.392 184.942 -207.773
-175.63 149.139 -150.993
-108.678 164.461 -199.847
-116.909 138.75 -211.939
-94.574 202.617 -177.102
-131.47 204.846 -140.581
-312.569 105.03 -84.222
-304.68 121.197 -103.584
-285.7 79.7407 -106.089
-320.737 155.285 -91.8133
-316.578 137.846 -99.0372
-329.148 140.908 -83.9507
-259.749 111.765 -129.118
-286.134 129.818 -121.856
-267.597 131.958 -128.078
-235.558 171.204 -113.271
-255.389 159.57 -124.327
-283.961 175.258 -101.726
-206.245 160.06 7.73483
-308.676 150.664 -69.7899
-290.951 157.128 -57.1572
-217.945 143.799 8.08289
-226.432 113.214 22.4789
-288.803 40.5784 -60.1772
-319.78 109.603 -74.6197
-302.456 62.2088 -51.1738
-317.356 102.257 -72.1939
-287.831 1.28505 2.59037
-328.898 137.438 -83.001
-329.975 140.918 -83.9877
-233.061 -31.5837 215.067
-236.955 -68.5878 226.125
-226.376 60.982 107.922
-226.551 10.0092 182.141
-260.575 -73.1127 118.213
-240.366 -26.6039 150.352
-262.971 2.91141 33.3272
-303.516 135.187 -61.7905
-287.462 108.37 -42.4075
-275.934 109.132 -29.4379
119.16 228.154 130.549
132.745 207.064 73.9288
91.2665 204.759 168.833
109.206 226.456 146.376
151.06 156.925 92.8121
120.499 211.078 135.706
121.611 148.412 164.325
10.3621 46.8826 356.058
25.2579 88.56 296.503
106.557 49.1792 295.7
64.3432 72.1847 291.948
72.0441 22.5055 335.609
55.9386 143.036 264.265
70.3808 166.043 232.478
198.065 -24.322 248.164
185.945 -7.87942 264.979
187.094 -37.5393 281.096
168.575 53.8734 222.859
182.363 22.7447 247.975
185.342 33.1434 209.229
153.841 -9.57737 308.424
170.402 8.86348 279.252
151.686 20.9939 288.869
95.5276 150.548 220.706
121.071 70.7061 259.799
129.337 100.524 214.913
-29.4831 22.6209 383.473
-9.96468 28.4739 378.22
-78.0008 3.33361 364.846
-46.6764 13.6521 384.221
-9.7798 -10.4677 402.499
-30.647 0.133137 398.08
-29.4402 -16.4279 403.334
-217.25 -77.8576 281.582
-194.84 -55.0268 304.584
-139.821 -122.88 345.471
-174.077 -77.3081 328.438
-160.41 -163.895 323.679
-171.925 -35.5836 326.015
-144.11 -21.1767 337.837
-2.8381 -254.124 401.583
-52.4462 -236.855 402.187
-47.932 -273.217 401.606
-30.6164 -81.5778 390.785
-45.5371 -164.744 399.483
-2.10474 -109.565 403.104
-96.6378 -249.683 387.014
-71.39 -225.385 394.71
-83.9834 -198.062 379.486
-90.5971 -29.4351 363.233
-92.4556 -91.7105 369.703
-54.0017 -47.1908 394.874
-250.021 -106.417 203.145
-235.052 -96.0063 245.538
-265.879 -102.148 110.912
-262.316 -111.148 164.092
-234.968 -174.924 218.166
-259.065 -133.155 186.463
-249.212 -171.888 159.57
-278.213 -39.6047 -58.1133
-280.786 -47.8568 -34.0914
-254.781 -147.189 27.5616
-275.59 -94.3575 -12.6961
-245.659 -131.88 -17.9638
-280.947 -60.7816 -2.89118
-278.488 -76.3535 44.1817
-198.888 -278.753 147.316
-223.184 -254.508 119.709
-201.413 -268.801 104.551
-250.643 -214.699 138.786
-240.198 -235.261 130.109
-223.989 -242.265 178.895
-232.103 -216.235 41.6629
-242.672 -227.681 96.0628
-249.377 -203.204 71.6444
-266.161 -140.721 94.0574
-263.023 -174.043 90.6381
-264.082 -181.623 119.137
-253.24 40.129 -110.667
-260.361 -4.94552 -88.0144
-196.264 87.7747 -132.837
-243.292 68.5016 -127.879
-194.426 -89.5856 -116.855
-214.151 -15.5069 -120.335
-170.623 -60.0628 -143.811
-4.70236 144.567 -240.288
-35.6378 146.648 -233.407
-28.4363 106.664 -215.239
-31.1118 146.599 -234.217
-6.22523 129.429 -226.608
-78.0584 148.029 -225.569
-117.11 139.075 -211.719
-126.816 -143.953 -76.4749
-147.307 -72.4133 -105.412
4.28207 -121.317 -72.3837
-152.783 -80.3939 -153.529
-161.169 -93.0009 -147.989
-175.892 -123.466 -119.156
13.2186 78.4198 -230.361
-100.212 -12.4176 -184.631
-46.2855 39.1654 -205.813
-112.916 85.4013 -168.268
[...]
POINT_DATA 642
SCALARS Mean_Curvature double 1
LOOKUP_TABLE default
0.0235059
0.0312159
0.0253394
0.0215446
0.00313229
0.00397017
0.0235014
0.00748186
0.00361238
0.0114582
0.00463778
0.0136612
-0.00193575
0.00353333
-0.0270141
-0.0125319
-0.00399998
0.00385947
-0.000552694
-0.0373559
0.0344038
0.0254826
0.00534073
0.00105284
0.00114968
0.0240353
0.00581201
0.00751891
-0.025976
0.0601055
-0.0180735
-0.0846926
0.00401316
-0.000159805
0.0365962
0.0294116
-0.00529805
0.0912632
-0.1456
-0.0222311
0.0091406
0.000299913
0.0150408
0.0132547
0.0326169
0.0148279
0.012206
0.00485595
0.0101898
0.00906049
0.0120924
0.0191944
-0.00183011
0.0179058
-0.00143554
0.00543809
0.0263286
0.0305077
0.00053755
-0.00937855
-0.0133709
0.0036537
0.0103138
0.00882016
0.0122856
-0.0239543
-0.0137349
-0.0247926
0.00521193
0.0312881
0.042914
0.0196943
0.0109668
-0.0303575
-0.0639542
-0.00740673
0.000722679
-0.00331773
-0.00292496
0.0055656
0.0111898
0.00918329
0.0133075
0.0138221
0.0207586
0.0142435
0.00620859
0.0120007
0.00071842
0.0255749
0.0240859
0.00907578
0.00650937
0.0185604
-0.000276859
0.0171159
0.022826
-0.00123822
-0.00164842
0.000745127
0.129434
-0.00981673
-0.0459106
-0.0343262
-0.0133417
0.00495627
-0.0514974
0.00557792
0.0352014
0.00545815
0.0276924
-0.0869017
0.0102201
0.0059698
0.0137277
0.0109403
0.0128116
0.00997439
0.0100089
0.0174862
0.0290762
-0.00500437
0.209477
0.0205385
0.0736922
-0.0404105
-0.0335788
0.0177099
-0.0233769
0.219307
-0.0592515
-0.016494
-0.0206408
0.0275353
-0.0158819
-0.00899886
0.0028919
0.0446846
-0.400654
0.0228389
0.0137876
0.0181569
0.021849
-0.0300243
0.0309389
0.00237718
0.0029236
0.0189295
0.0172089
0.0143971
0.0113034
0.0187065
0.0228465
1.55879
-0.0870633
0.00836539
-0.00435972
-0.123043
-0.00658464
-0.0100082
-0.0862949
0.00635148
0.0186503
0.0359939
0.0249185
-0.00767336
0.0188366
-0.0063074
0.0285391
0.0322948
0.0299063
0.00574881
0.00703363
0.0113658
0.0101518
0.012177
0.0126549
0.00293687
0.00950258
0.00427648
0.00130065
-0.00952642
0.0178415
0.0188661
0.0210232
0.0221768
0.00299364
-0.00433716
0.00498431
0.00133219
-0.00426792
0.0048229
0.0323863
0.0125059
0.0160505
0.0274345
0.00948813
0.0225388
0.00163885
0.00684641
0.00751657
-0.000262121
0.0109435
0.020401
0.00737799
0.000876035
0.00562933
0.0317053
0.0223895
0.00207591
0.033949
0.0166038
0.0325365
0.0402272
0.0279865
-0.00256923
-0.00405989
0.0121407
0.0126247
-0.0024102
-0.0016381
0.0307107
0.0106409
0.00697401
0.0143677
-0.001216
0.0157084
0.00866195
0.00678788
0.00413836
0.0350292
0.00471744
0.0146931
0.00797848
0.018101
0.0047185
0.0066341
0.0126537
0.009961
0.00586543
0.00557562
-0.00137679
0.0091493
0.00671319
0.0817048
-0.0250892
-0.0287926
0.0621583
0.108122
0.425261
-0.00167613
0.00822237
0.0139868
0.012961
0.00548466
0.0704127
0.0109747
0.0130201
0.00991343
0.00799682
0.0189499
0.0600879
0.0317673
0.218306
0.00798686
0.015219
0.0105255
0.00728306
0.0268725
0.0256185
-0.00318043
0.0196405
0.01935
0.000606866
-0.00710612
0.0143979
-0.163345
-0.0618482
-0.135936
-0.0669834
0.242333
-0.0423596
0.00549182
0.00165615
0.0106615
0.00603809
0.00100991
-0.001958
-0.0057052
0.0196357
0.00354108
0.00392109
0.0339417
-0.00399856
0.0204853
0.0272692
-0.00157128
0.0100513
-0.00402276
0.0187937
-0.0065643
0.00808143
-0.00665019
0.00147942
0.0124335
0.0125769
0.00931753
0.00795681
0.0104795
0.00671024
0.0173204
0.00445149
0.0098109
0.013158
0.00837602
0.00718359
-0.0016907
-0.001124
0.0217369
0.00991006
0.00982495
0.0186226
0.0226744
0.0268819
0.01938
0.0126645
0.00577543
0.00318169
0.00852487
-0.00444651
0.0136617
0.00852214
0.000781123
0.00998726
0.00245264
-0.018324
0.00122437
0.0210772
0.00437287
0.0138073
-0.00828125
-0.00437419
-0.00429467
0.0190603
0.00545615
0.0082707
0.00337533
0.0115491
0.00318418
0.0171677
-0.00760731
0.023436
0.0081146
0.00139613
0.0181749
-0.00673351
0.00204222
0.0162901
0.0121269
0.0110648
0.0100075
0.0132395
0.0130614
0.00377442
0.00979844
0.0145852
0.00710889
0.00303248
0.00974694
0.0164342
-0.000568998
0.00681378
0.00312836
0.0140131
0.00296937
0.00553641
0.00466255
0.0402445
0.363381
-0.00596009
-0.0746328
-0.00505022
0.129129
0.00719706
-0.0104192
-0.0145475
-0.00796304
0.00464124
-0.0697679
0.165851
0.0265603
-0.0243053
-0.00522448
-0.0113266
-0.000347994
-0.000711184
0.00735365
0.00545143
0.0098495
0.010555
0.0948457
-0.00148687
-0.0266816
-0.0122335
0.103641
0.0256024
-0.180782
0.0786787
-0.0332302
-0.0317586
0.0189129
0.0191204
-0.0122108
0.0209784
0.0322831
-0.00121733
-0.157305
0.0288946
0.0681473
0.0240459
0.0364283
0.0208272
0.00435418
0.0103797
0.0155207
3.1844e-05
0.0174801
0.00792128
0.00745165
0.0142753
0.0116255
0.00546221
0.0086943
-0.00277025
0.0110456
-0.00145291
-0.00395882
0.00740621
0.0053859
0.00509576
0.016909
0.0265495
0.00960604
0.0111011
0.0199401
0.00737656
0.00309946
0.028051
0.0024162
0.00816917
0.012607
0.00391171
0.0166613
-0.00958612
0.0540409
0.0396221
-0.0311021
-0.035185
0.00248564
0.0193333
0.0213461
0.0460932
0.02379
0.00675211
0.0241805
0.0343291
-0.0189957
0.00944261
0.0253161
-0.00237673
0.00608126
-0.00287283
0.0286293
0.0435343
0.105889
0.0405936
0.0150039
-0.0150838
0.468671
0.0150384
-0.0112118
0.0402457
0.5594
0.202236
-0.046044
-0.0122506
0.011732
-0.0252346
-0.0841119
-0.203556
0.0571061
-0.0068297
0.03111
-0.0229318
0.0384628
-0.0351147
0.0332462
0.0818873
-0.0331088
0.0229505
-0.0102036
-0.00357585
-0.0013529
-0.00518493
0.00623557
-0.000180778
-0.454933
0.107307
0.00677245
-0.00274243
0.0106165
-0.015637
-0.0164968
0.101409
0.0342847
0.516475
0.153719
-0.113806
0.0217383
0.010097
0.0124744
0.00991031
0.00223648
0.00605469
-0.00592728
-0.00537502
0.0113977
-0.100909
0.00217198
0.00315214
0.0111007
0.00453811
0.0206945
0.0203132
0.0135361
-0.00170166
0.00665552
0.0126363
0.00082532
0.130982
0.0177243
-0.0154752
0.00284645
0.00426613
-0.00188853
0.0240544
0.00108554
0.0105016
-0.00183673
0.0186178
-0.00853937
0.00787003
0.0151452
-0.00522171
-0.000751464
0.0037787
-0.0103035
0.0140253
0.00677386
0.0154993
0.00658243
0.00688172
0.0238461
0.0222783
0.0310056
0.00931757
-0.000693484
0.000732296
0.00600723
-0.00135529
0.00621742
0.0113462
0.0112444
0.00964292
0.00394199
0.0220078
0.00988369
0.0285186
0.014395
0.0106894
0.00835027
0.00160396
0.00700583
-0.00416858
0.0162034
0.00908632
0.00608714
0.00751414
-0.0255876
-0.305773
-0.0267813
-0.030856
0.277043
0.00883574
0.006278
-0.00531111
-0.150355
1.37446
0.00809257
0.0186668
-0.000379362
0.00425391
0.00947653
-0.186337
0.00117429
0.0360611
0.00277746
0.00346299
-0.00656639
0.00736709
-0.0318651
-0.0180529
0.0335878
0.0314473
0.00574515
0.0992374
-0.404601
-0.0122798
-0.312825
-0.117272
-0.0135603
-0.000969627
-0.00994476
-0.0151298
0.00138907
0.00104469
-0.000741727
0.00260269
0.00735846
-0.205349
0.114524
-0.63109
0.00900011
-0.0844891
0.00265994
-0.00733175
0.00312869
0.0230217
0.0116073
0.000131349
-0.00173504
0.00900324
SCALARS CoVolArea double 1
LOOKUP_TABLE default
1764.22
1652.32
1070.23
1368.23
1098.9
1254.2
1089.17
1160.55
1631.94
1090.92
1551.99
925.719
6668.63
1898.1
1279.15
1057.7
2728.78
2930.99
3336.38
2210.07
214.934
2418.57
1938.36
5895.27
2639.78
1174.64
2070.94
2476.09
1472.02
905.435
164.444
1670.85
2178.4
2782.3
1194.97
1335.82
6215.42
852.548
440.47
1259.85
2018.93
1655.73
1380.58
1534.96
405.477
1014.1
2051.59
1487.72
1471.23
2498.77
1542.31
1276.21
935.831
1309.83
3485.41
787.567
930.928
383.773
2140.78
3339.86
3077.96
2055.74
1585.76
1963.51
1538.48
1138.65
1847.51
813.273
2466.29
285.39
874.186
1087.41
1449.67
1859.77
809.682
4829.91
2266.81
1832.99
2084.91
1878.84
2327.84
1182.44
1661.14
859.552
1022.63
487.809
2282.67
2406.85
3106.72
2646.27
791.863
1676.35
1877.99
1450.54
2146.29
1578.14
961.696
1676.23
4620.22
2480.32
196.721
2655.25
2320.67
1003.17
17135.6
3597.93
829.596
1231.2
579.682
1004.87
898.607
201.885
1413.79
1979.45
1506.27
2040.79
1765.96
1517.2
1577.6
1388.62
650.639
929.698
411.076
1473.96
673.833
1065.74
1188.32
1453.51
6820.88
248.494
316.155
7883.36
3484.51
8001.04
3615.91
803.879
1521.66
1106.84
80.0998
1185.13
1461.93
2075.91
923.667
1508.35
1449.34
2358.61
2562.26
2844.84
1620.3
1446.52
1952.9
1546.72
1694.23
27.1338
812.738
1622.94
5311.43
537.374
3216.29
5440.03
1140.75
1341.27
2066.42
567.409
709.199
3054.45
996.907
4187.41
591.349
508.066
1137.62
1088.02
1119.98
1213.3
1777.37
972.355
1035.32
3353.58
1388.01
3080.16
1998.45
1939.93
1089.7
1413.22
1501.92
1153.76
2013.61
2687.3
2848.82
3227.82
3363.76
2800.47
593.329
1782.95
1249.42
383.983
1451.14
715.367
2475.38
1821.8
1809.92
1939.31
1736.2
1098.59
1877.87
2467.62
1970.23
653.672
897.759
2182.42
538.43
1078.96
522.015
341.681
864.851
3140.95
2653.82
2319.02
2744.94
3189.65
2348.97
1220.75
3516.31
2808.42
2518.37
2887.45
2376.77
3020.17
2989.45
3710.63
964.27
2087.91
1533.19
1615.24
1468.37
2076.15
1784.36
1897.5
2022.56
1738.7
2272.43
3022.01
2584.3
2524.31
1282.2
3404.34
4055.01
1281.83
348.271
139.927
347.257
1179.25
1611.02
3047.1
2194.08
1197.3
2025.44
3520.96
1089.82
833.231
1595.66
635.706
435.75
122.287
1321.97
542.371
1664.23
2832.14
1761.22
1149.66
3312.11
402.068
1467.71
2541.56
5723.24
1648.79
515.051
2395.4
679.329
1705.31
57.9856
184.28
2122.62
1436.84
5119.85
3271.95
3373.66
5112.35
6055.98
561.44
3073.59
2220.9
712.57
1552.42
1211.26
547.917
5472.61
1836.52
3970.94
1143.58
1981.97
2584.2
2807.19
2337.63
1590.42
1473.93
1172.18
880.02
894.869
2690.56
927.485
2333.76
975.138
878.808
1588.31
2726.02
2803.53
3020.71
544.053
652.911
1519.32
736.116
461.957
410.116
912.571
1396.68
1343.7
3992.2
2061.59
2768.86
1104.1
1600.9
1972.83
1904.83
1302.61
2148.86
2533.92
2401.6
1015.04
1306.84
3370.92
2475.01
4085.9
2375.16
1339.4
1429.98
2153.25
1445.01
2298.47
1603.6
2130.76
1835.23
1655.89
2648.71
1718.45
1972.16
2126.79
2139.92
1470.95
1208.27
1352.19
1544.4
1105.86
1789.92
1526.5
1166.55
1779.9
2005.12
1832.77
1370.26
2090.55
2173.26
3803.18
2352.84
2201.14
2853.56
2385.1
537.782
192.338
2010.12
619.493
919.827
183.313
2035.41
3701.35
10669.5
12326.7
773.193
1618.2
356.951
5472.62
6238.88
1497.9
5878.27
3686.55
3646.01
1599.35
1145.54
2711.26
2388.27
1318.13
2719.77
3847.42
2399.41
1144.28
245.446
168.57
347.598
1194.05
2212.05
1301.95
634.568
979.588
1535.11
580.906
795.185
102.524
484.276
536.417
1928.29
934.411
2294.98
1538.24
1647.44
1703.96
2258.16
1648.69
1532.53
869.797
1408.88
1415.13
1295.9
2000.4
1564.71
2022.35
2350.3
2862.88
1815.38
1903.52
2179.62
1209.56
1153.49
1141.33
1609.21
1406.33
1623.76
1185.69
770.629
1205.26
2336.02
1808.89
2089.29
1192.73
1017.93
594.185
866.614
2678.4
881.904
3036.62
1155.51
1299.56
901.173
1269.48
1650.06
1343.16
985.619
1327.19
1278.9
1685.07
3511.39
1373.75
3003.24
915.627
705.434
504.825
398.603
366.21
1794.75
194.069
1110.58
11600.6
1243.27
145.682
503.898
2095.46
1001.8
631.904
2583.81
1044.93
319.718
2337.22
12191.7
3769.28
8346.52
3740.28
2982.59
5087.51
1013.82
1422.23
5109.31
3060.74
15595.4
9085.04
9216.05
1337.37
1673.87
100.457
456.086
1343.66
1297.98
1326.72
2899.35
1063.4
369.885
247.199
96.0678
469.028
67.3928
1691.47
1589.46
1668.46
1511.78
1525.75
1694.15
2432.59
1800.29
1404.69
406.265
800.92
1279.02
1263.06
1778.32
1043.56
965.325
1322.31
1781.74
1528.42
1912.97
1353.76
1075.97
1167.47
2307.93
1264.79
1720.95
1692.24
1118.36
2711.73
1551.32
2752.82
1748.06
2964.63
1747.55
1591.71
3309.52
1346.25
2042.08
1731.9
961.64
1410.51
806.315
1611.68
3207.46
640.355
1010.13
480.395
1044.19
1831.25
3576.69
2435.74
2940.69
1917.93
1592.88
1550.76
1861.77
2321.45
1216.7
1139.57
897.806
1535.11
1827.78
2096.09
2294
1956.41
2079.22
1711.84
2131.27
1850.43
2339.46
1436.37
233.066
713.258
498.324
241.642
1311
1604.81
1514.34
448.591
31.3272
1998.74
1311.78
1993.47
1738.36
1803.55
298.676
1387.82
738.87
1830.96
2931.11
3018.92
2324.01
3365.99
8458.47
945.106
4535.97
713.908
753.992
199.043
1952.35
125.132
622.04
1984.44
4290.21
4063.48
7130.57
2316.22
4553.21
4831.78
3482.88
4772.88
416.797
318.899
57.8352
471.005
2027.83
1963.07
5031.85
2631.35
1005.51
482.407
3325.33
1016.91
2805.59
SCALARS SignedDistance double 1
LOOKUP_TABLE default
31.5852
39.0929
40.2792
40.8066
27.1014
35.2137
173.77
23.9821
27.7536
31.0843
27.4788
28.6652
34.2056
33.0518
41.6228
42.1966
30.2746
28.8586
27.9308
37.5859
28.5326
32.2404
31.0838
33.8623
29.1368
29.6544
33.3654
29.8172
72.9944
69.7518
30.8871
80.1248
31.2108
31.4347
26.6226
25.2745
93.1784
52.705
51.4565
59.0775
35.3003
30.909
41.9439
38.4735
24.807
27.826
29.5565
32.1058
30.1151
32.2625
29.4737
29.0796
31.1023
29.4751
37.4442
31.7653
29.3299
26.6953
29.8521
37.5881
40.0035
30.538
23.8901
26.8553
22.7018
42.2092
32.1852
32.3386
34.8733
40.9829
26.2735
28.5097
36.7066
37.0258
34.4377
39.1484
32.4879
37.9519
38.2177
31.2495
30.8457
32.8861
29.506
28.9135
26.3638
28.4221
29.096
27.8597
29.2489
28.292
28.0155
30.9529
30.6102
24.4003
38.2956
23.9479
26.7456
27.9333
32.3307
31.3296
35.5395
32.2701
53.0587
94.6103
130.997
39.864
35.1686
29.6035
33.2745
26.9573
23.095
42.9007
27.102
27.1426
30.3802
29.1021
30.2178
32.0472
22.3597
28.6453
29.7136
34.6198
61.1039
18.6993
38.1787
64.6216
34.6396
29.7631
50.7559
57.974
64.0206
46.2402
41.6982
187.405
55.9432
43.6731
27.347
54.5102
46.2484
25.8187
25.5329
31.0935
31.3286
48.7946
29.878
32.9805
33.089
29.0657
28.7129
29.7545
25.0339
26.0356
28.8949
53.142
53.0631
25.8333
34.7001
89.5315
34.3263
49.5984
43.8006
36.8302
39.3052
27.0124
25.2632
38.1805
32.9741
41.0791
29.505
29.9997
41.3595
30.6102
30.7123
29.6773
29.0848
29.0399
28.4797
32.4852
30.1578
32.1727
46.3719
43.5693
31.92
28.704
28.9681
28.8887
31.0429
37.7648
34.1867
33.239
37.8055
31.5434
27.733
27.307
30.1543
28.0673
31.9331
30.2585
30.9333
46.6321
30.1163
39.7753
29.4053
29.8065
29.2501
39.2992
27.8784
25.8607
28.4944
29.6556
30.0359
31.7684
27.8916
27.5104
29.747
32.1058
32.9131
29.3981
26.4162
32.659
32.4643
30.0076
28.3829
27.6348
26.2971
37.2375
28.1569
26.3498
27.6941
35.024
28.7962
33.7916
21.4582
24.5393
21.2591
26.2351
25.5024
26.2312
24.7316
26.3664
25.3775
29.821
27.9406
28.2318
58.8344
40.6755
35.9955
59.0116
28.1913
41.2075
28.9317
27.8148
21.6606
40.8869
23.3776
42.3069
22.6392
26.033
29.6506
24.8626
25.4686
25.3617
27.0029
41.2197
33.0462
26.4973
31.9936
45.8476
36.6074
25.7017
36.166
29.4505
31.2366
36.3101
39.2873
32.1145
39.5998
41.271
40.0088
48.0441
41.271
40.9455
32.0158
32.8537
30.7579
32.1849
34.7097
34.7923
37.2885
34.1473
36.3644
35.7976
31.4763
39.5957
39.7606
32.0032
35.4882
35.8167
35.9843
31.973
44.736
32.9974
39.7077
33.2904
29.5282
30.1053
30.6977
31.6587
32.1465
33.2391
30.2017
33.8061
29.6275
29.3964
30.5145
32.0423
37.0683
35.1786
29.5703
29.9421
32.6729
27.779
28.1358
28.1387
28.9997
28.9123
29.8402
34.1898
28.4027
31.2804
27.8356
30.4131
27.2234
27.8322
27.2454
36.1058
29.0364
35.3833
27.9582
29.652
31.123
34.9647
36.6921
32.3608
31.9182
32.0622
31.9773
32.2608
29.4742
29.9109
35.3814
27.7947
30.5744
35.0605
28.5488
37.4439
30.7543
34.8411
28.7167
26.7708
31.4911
27.0237
28.0153
28.9187
25.947
25.8425
27.7814
32.2569
30.7758
38.2615
30.0915
28.0492
38.9337
37.3126
38.8234
33.5327
50.6177
35.3245
33.2397
51.3729
31.5031
35.342
33.9602
42.2037
82.9923
51.1203
168.569
78.6394
78.2035
65.2325
84.1705
110.534
117.694
67.9201
112.241
70.8589
23.791
28.5796
33.9453
23.0402
61.4621
29.5524
50.0544
34.5786
47.2011
28.869
29.8824
30.9204
46.7634
40.4141
26.3805
25.9468
38.999
32.7887
24.8677
36.5555
41.2804
30.1924
32.124
41.1109
22.3122
31.7931
26.9608
26.848
39.1653
29.7739
26.0714
28.215
28.4417
25.2529
27.4769
31.1229
30.8195
33.6713
28.475
32.3114
35.1474
28.8803
30.0862
29.5708
25.7588
24.1039
27.4575
26.7174
20.4309
23.6283
29.8485
27.9859
31.616
28.9726
27.4655
27.7503
47.4639
59.3947
35.3464
33.0303
47.2345
41.1599
47.0615
26.828
20.0025
38.649
20.141
21.9961
20.2623
34.3302
50.1832
45.5798
41.5393
54.583
42.0083
51.0928
29.2808
38.1495
36.2239
35.0695
36.2202
33.7499
62.6666
58.0406
52.4991
64.8863
52.1671
59.1854
48.8987
59.326
69.677
40.1486
66.3343
54.3997
72.0126
78.1556
89.3628
175.816
120.187
42.3209
83.089
50.5698
36.6073
98.8557
58.9465
174
111.742
90.2992
45.9154
30.1331
51.4001
52.5099
29.5527
31.1055
25.4497
53.3815
37.9778
45.7949
45.0744
58.9281
47.3906
48.9351
28.7947
28.1223
28.7804
30.4089
36.4523
37.9419
29.0779
37.826
29.4667
48.1625
40.9486
28.9625
27.7609
31.7793
26.4795
26.7451
29.8776
35.8866
31.2754
31.4513
31.4561
44.4796
28.4113
38.5467
33.2956
32.1705
38.7503
32.6844
35.2157
32.6545
35.0479
32.9554
37.1892
33.6377
30.1135
30.3219
30.953
30.4935
39.6017
29.2003
30.5869
28.8223
29.698
32.1367
28.4083
27.4848
27.1003
29.7364
32.5597
38.6768
33.0229
37.8239
26.6316
24.5901
26.3982
27.2012
27.9588
25.7084
29.4934
29.3245
20.3976
22.3988
27.0699
29.7425
30.113
32.711
28.6343
25.0815
27.7071
25.7281
46.7179
52.7972
52.4561
55.1486
56.2327
53.8614
25.0741
33.286
55.2386
52.4675
29.3343
45.6744
28.023
35.0961
27.3639
52.6659
32.3444
53.272
27.7582
38.9035
36.1285
32.4755
66.9227
40.1198
117.131
96.284
68.1788
69.4828
36.1287
60.9537
34.0843
34.6241
51.8394
70.2549
117.516
56.5051
35.1997
36.3235
34.8521
33.3568
34.186
44.6542
41.8883
43.22
40.3588
49.334
37.2099
40.1368
36.7025
32.1411
30.7786
35.0347
34.5883
34.8992
