# vtk DataFile Version 4.2
vtk output
ASCII
DATASET POLYDATA
POINTS 642 double
-273.313 407.062 93.455
267.499 400.04 90.0768
-274.665 -471.636 106.346
268.183 -466.726 108.141
-1.6855 -339.122 578.099
-1.93582 214.533 525.278
-0.156259 -282.245 -285.511
-0.793711 260.733 -375.41
445.627 -10.413 -178.675
413.182 -39.2325 361.076
-455.933 -9.61557 -182.443
-424.955 -39.5996 364.957
-386.006 216.645 235.808
-245.776 111.176 503.138
-156.378 376.839 335.302
151.365 373.997 333.609
-0.505062 481.551 91.5883
164.154 396.469 -177.351
-166.834 400.169 -179.432
-277.692 138.912 -337.628
-462.083 251.32 -80.6607
-503.287 -29.2562 83.9307
242.038 108.639 497.859
378.433 208.471 233.955
-255.853 -217.206 530.672
-0.941506 -37.0192 616.561
-413.129 -288.769 -57.9619
-414.326 -297.704 260.925
-1.87433 -7.07832 -426.404
-256.942 -184.941 -306.42
450.465 245.769 -77.34
273.393 139.02 -336.846
404.742 -293.826 257.704
248.267 -216.378 525.497
163.929 -486.098 383.253
-166.819 -489.25 385.661
-1.96743 -543.851 132.443
-162.953 -433.444 -149.245
159.805 -431.347 -147.998
253.778 -184.963 -302.397
406.274 -284.826 -57.9404
495.254 -28.9278 82.3895
-349.698 327.242 166.163
-287.578 320.453 296.633
-221.053 414.465 225.044
-349.544 40.437 447.743
-336.147 165.558 388.336
-421.379 86.5919 315.901
-80.2589 307.108 439.074
-202.947 253.929 432.326
-123.452 171.781 534.708
-90.8882 456.475 224.928
-140.599 469.296 95.4769
76.8599 305.984 437.351
-0.474843 387.831 347.41
137.624 467.985 93.9111
86.753 454.972 224.732
214.804 409.197 223.315
-85.4286 468.43 -46.3204
-237.368 412.043 -49.0092
234.04 409.738 -46.7732
83.1275 466.029 -44.7542
-87.312 348.662 -293.383
-1.19317 425.037 -195.44
84.5269 347.192 -292.154
-335.981 346.268 -139.655
-386.928 343.637 -10.138
-140.206 209.636 -378.452
-235.203 288.632 -276.893
-490.388 122.357 -148.99
-394.485 208.029 -232.641
-389.754 72.9766 -277.599
-457.016 246.505 68.2068
-502.771 -9.35386 -57.6021
-524.324 123.368 -10.013
-467.466 104.944 148.26
-476.438 -44.4533 235.616
278.3 314.548 293.758
341.184 319.991 159.719
118.957 170.055 530.514
198.592 250.8 429.008
411.185 85.6671 312.74
329.795 162.417 384.232
342.344 38.5271 443.4
-127.347 46.9891 588.257
-1.77474 98.8883 592.728
-352.494 -125.293 453.996
-265.599 -37.9476 530.584
-1.05905 -200.254 606.894
-133.803 -137.106 593.356
-141.641 -282.849 576.913
-481.544 -172.187 180.054
-436.112 -171.95 320.589
-445.782 -161.264 -126.138
-483.652 -165.34 13.335
-359.946 -401.439 186.83
-439.265 -308.612 100.979
-358.598 -392.912 22.4804
-277.554 -14.4266 -334.733
-366.087 -104.736 -256.242
-0.916349 122.753 -435.495
-135.597 73.5347 -415.051
-141.915 -244.867 -324.853
-135.57 -99.7156 -380.305
0.903753 -130.876 -357.594
230.546 282.96 -273.139
137.428 208.059 -375.961
377.804 338.786 -7.31626
328.592 341.686 -136.739
383.546 69.0666 -273.688
385.458 204.333 -227.118
474.364 117.624 -142.494
352.494 -396.058 186.171
298.869 -405.382 332.204
219.377 -494.206 254.466
346.333 -120.972 448.316
344.978 -263.053 407.486
425.745 -169.285 315.88
85.0744 -432.353 499.362
222.67 -362.655 480.822
138.895 -281.74 574.793
82.4128 -555.307 260.124
135.843 -525.228 117.766
-87.9129 -434.204 501.588
-0.973766 -521.306 404.415
-138.62 -528.08 118.271
-84.4847 -558.002 260.131
-224.738 -499.452 255.244
99.8659 -492.195 -19.7089
220.529 -460.705 -27.183
-223.044 -464.889 -26.4349
-103.469 -491.981 -19.0631
101.326 -364.375 -235.9
-0.0905561 -413.377 -142.271
-104.524 -363.937 -236.201
298.085 -377.262 -113.183
351.537 -387.42 21.593
137.855 -244.293 -322.465
215.34 -323.175 -242.011
439.352 -159.569 -123.618
348.89 -244.796 -196.768
361.448 -104.389 -252.53
428.599 -303.853 100.567
491.291 -12.265 -53.5899
476.961 -162.012 9.63004
468.022 -170.074 180.444
463.112 -45.067 231.275
129.94 -136.705 591.383
261.957 -38.0249 526.569
122.881 45.9325 583.635
-306.784 -409.628 335.274
-227.403 -365.705 484.273
-354.09 -265.819 412.939
-216.682 -325.179 -244.641
-302.068 -380.02 -114.439
-353.632 -246.592 -199.62
275.745 -13.0471 -330.312
130.842 -101.005 -377.148
132.033 75.1592 -412.457
455.867 99.814 146.929
506.006 118.91 -9.05972
443.96 242.238 68.2396
-315.708 371.456 129.28
-287.193 378.14 201.253
-247.272 417.544 163.154
-340.513 275.627 270.723
-319.578 329.237 238.708
-373.329 278.807 198.585
-190.539 401.243 282.185
-258.092 371.095 264.234
-225.125 354.487 318.796
-390.754 1.01339 409.35
-391.269 64.7699 384.987
-427.321 24.5856 342.6
-296.925 139.612 449.029
-346.124 105.032 421.694
-301.806 77.1418 478.523
-407.95 146.782 282.846
-382.435 128.309 355.139
-364.749 190.759 318.874
-40.7279 261.301 482.877
-101.234 239.765 489.004
-63.3693 195.868 535.303
-179.891 319.501 386.388
-142.967 285.165 438.898
-118.349 343.547 389.627
-184.249 143.046 522.923
-165.096 212.226 484.164
-225.825 181.034 472.514
-309.938 244.43 340.593
-272.039 212.108 412.96
-246.565 290.297 365.816
-185.535 448.677 163.28
-207.015 444.474 97.1341
-126.539 423.778 282.095
-156.401 441.43 227.364
-76.2049 484.658 92.7866
-116.937 469.175 161.94
-48.9093 474.101 158.746
37.2546 261 482.041
-1.49599 309.164 442.338
79.391 386.358 344.294
40.4622 350.413 396.513
114.365 341.764 387.538
-43.1284 350.536 397.225
-83.0139 386.603 345.541
200.474 440.384 94.9845
180.118 444.263 161.312
240.316 411.522 161.639
46.7008 475.634 158.853
112.543 466.559 160.253
74.2126 483.497 92.9145
184.937 397.038 280.166
151.811 437.722 226.338
121.508 421.265 281.318
-46.5138 428.029 287.112
44.7701 429.539 288.248
-0.431964 455.983 224.841
-184.188 451.192 25.9251
-258.864 410.928 19.3771
-46.07 484.177 23.1177
-113.675 474.53 24.9937
-204.058 409.584 -115.572
-155.415 448.887 -47.1482
-125.64 440.777 -115.193
254.396 407.248 17.0085
181.12 448.676 25.3121
122.742 437.491 -113.911
154.524 446.011 -44.876
201.597 404.66 -112.907
112.193 472.981 26.4382
44.1336 483.856 23.7887
-44.4767 308.706 -339.165
-0.890447 353.379 -299.033
42.4862 308.206 -338.68
-83.3804 418.534 -191.398
-44.3304 391.858 -247.34
-127.562 379.65 -239.829
123.976 377.004 -237.981
42.0684 391.221 -247.014
80.5328 416.537 -190.67
-1.65662 474.433 -48.3812
41.2795 451.53 -122.863
-44.3074 453.026 -123.115
-324.246 386.423 -33.8248
-331.971 368.665 32.5998
-257.189 371.713 -158.959
-296.859 386.565 -97.2691
-430.094 305.521 -44.2177
-369.04 354.261 -72.5081
-403.592 304.746 -112.039
-71.2072 238.235 -382.087
-115.233 284.38 -342.886
-259.017 215.581 -311.627
-186.111 252.833 -335.093
-206.609 174.277 -364.71
-159.249 323.289 -291.947
-204.249 350.542 -232.705
-476.768 60.2825 -169.56
-447.497 98.8148 -220.119
-428.872 33.7072 -233.686
-433.945 232.845 -160.698
-447.444 165.508 -194.328
-480.864 185.706 -115.708
-343.805 108.582 -312.969
-400.48 139.493 -263.942
-345.934 175.256 -290.898
-295.012 323.31 -214.331
-325.193 253.879 -258.75
-370.524 283.686 -191.338
-370.922 331.486 72.6786
-467.571 255.284 -4.72076
-428.349 297.768 28.6296
-404.441 282.879 110.5
-423.866 233.202 140.565
-485.808 -9.80634 -120.723
-506.967 61.3715 -102.297
-513.859 62.7313 26.5353
-521.448 65.1741 -35.4332
-504.439 -14.2124 12.2191
-519.586 125.899 -76.6051
-504.679 185.717 -45.7444
-453.72 23.3651 279.76
-455.008 -41.3032 302.492
-433.616 156.953 191.982
-445.528 89.7903 244.678
-491.317 -41.7705 162.221
-472.587 26.4474 203.074
-489.292 42.0151 112.789
-498.201 186.723 30.3048
-508.239 123.654 63.2926
-476.572 181.143 101.834
278.821 371.727 198.973
309.552 363.832 124.51
218.412 349.812 316.061
250.467 365.649 261.323
363.195 269.9 191.702
309.026 323.835 234.961
329.084 266.633 267.853
59.2077 194.874 533.173
97.5214 238.678 486.233
221.859 178.818 467.772
161.403 210.607 479.92
180.333 140.97 517.144
139.173 282.978 436.059
174.927 316.189 383.973
415.871 24.6253 339.368
382.357 63.1201 380.905
381.569 0.947215 405.723
358.224 185.09 317.417
374.445 126.237 351.156
399.05 143.397 281.433
296.02 74.5237 473.911
339.039 102.636 417.039
291.21 137.004 444.254
240.528 285.222 363.301
266.91 208.602 409.54
303.17 238.144 339.475
-64.3762 138.906 570.875
-1.9143 159.012 564.206
-186.948 81.2122 550.801
-127.484 111.07 566.736
-1.72123 34.5016 610.716
-65.9391 73.5433 596.998
-65.9497 7.46538 610.515
-395.405 -78.5223 411.372
-357.899 -37.9352 454.589
-261.389 -129.894 527.806
-313.512 -81.6768 495.882
-307.573 -174.057 492.764
-311.362 2.31946 493.123
-259.889 38.9403 521.789
-1.20595 -271.883 599.886
-72.7678 -247.176 600.982
-70.9882 -314.528 582.035
-66.6314 -83.411 612.475
-70.8211 -168.008 605.491
-0.710246 -114.301 615.213
-203.749 -251.731 562.305
-142.008 -216.917 592.696
-195.549 -184.752 568.247
-197.526 4.28276 563.444
-199.501 -86.7015 567.646
-130.471 -37.6097 595.927
-465.292 -106.04 279.453
-435.591 -104.664 344.165
-494.833 -106.657 137.678
-487.168 -107.873 210.251
-428.668 -237.111 293.522
-463.819 -172.001 250.854
-454.485 -236.351 219.973
-451.422 -87.8719 -154.587
-479.388 -89.4767 -91.5555
-453.708 -228.718 -23.5556
-471.084 -164.09 -60.3179
-431.788 -225.614 -94.4115
-496.431 -94.9916 -23.0313
-501.547 -101.705 49.7102
-320.677 -441.232 146.999
-366.089 -402.937 102.744
-320.463 -436.205 63.8446
-433.206 -306.728 178.525
-405.378 -357.296 142.198
-391.487 -352.836 225.115
-389.63 -343.602 -18.7609
-403.918 -354.424 61.5568
-430.96 -302.731 23.0812
-490.977 -174.559 97.2453
-468.102 -241.501 59.75
-469.127 -243.785 139.873
-382.269 -11.0505 -270.009
-411.904 -56.8696 -222.336
-283.528 69.3399 -343.616
-340.367 32.9349 -310.647
-312.958 -148.213 -284.805
-327.12 -60.2352 -297.984
-269.536 -105.737 -325.466
-0.888054 192.771 -409.153
-70.2538 167.172 -412.46
-65.2312 34.4258 -427.97
-69.7441 97.1543 -432.762
-1.11125 58.9994 -437.444
-142.532 136.841 -406.504
-206.472 108.419 -387.029
-92.3204 -262.698 -311.154
-89.0207 -197.838 -343.317
0.125277 -210.774 -323.352
-197.156 -147.721 -347.073
-142.629 -176.645 -353.343
-196.296 -218.261 -321.399
-1.28378 -64.1121 -404.628
-78.1198 -113.615 -375.917
-64.4118 -47.1735 -408.125
-204.774 34.2973 -377.085
[...]
POINT_DATA 642
SCALARS Mean_Curvature double 1
LOOKUP_TABLE default
0.00388312
0.00255427
0.00491916
0.00432022
0.00672326
0.00443172
-0.00465384
0.00524814
0.00317482
0.00458702
0.00420431
0.00483548
-0.000790776
0.00340939
0.00390921
0.00401816
0.000424661
0.00331307
0.00353675
0.00249491
0.0060479
0.00368585
0.00356119
-5.78716e-05
0.00448246
0.00325262
0.00358571
0.003089
0.00618376
0.00332584
0.0063343
0.00392761
0.00333475
0.00455811
0.00382632
0.00395479
0.00234996
0.00744285
0.00666324
0.00368183
0.00373105
0.00491996
0.00310685
0.00444992
0.00502689
0.00429495
0.00374154
0.00397913
0.00435562
0.00313036
0.00445662
0.00549302
0.00352942
0.00425926
0.0012066
0.00466083
0.00536051
0.0050218
0.00371637
-0.000178183
0.00087462
0.00311171
0.00440933
0.00455608
0.00446141
0.00464462
0.00619709
0.00398549
0.00137076
0.00790102
0.00466134
0.0043607
0.0062976
0.00262164
0.00934606
-0.00084103
0.00283543
0.00410533
0.00231611
0.00396662
0.0031845
0.00420737
0.00388336
0.00433131
0.00513737
0.00492103
0.00176581
0.00382513
0.00168433
0.0019372
0.00484275
0.00319652
0.00318417
0.00420689
0.0020543
0.00331346
0.00479009
0.00367917
0.000607337
0.00331408
0.00739178
0.00578447
0.0077081
0.00536287
-0.00494616
0.000232711
0.00383285
0.00561861
0.00433296
0.00595858
0.0048177
0.00525897
0.00360286
0.00370007
0.00264057
0.00306355
0.00386481
0.00333301
0.00458654
0.00461692
0.00582867
0.00522391
0.00315544
0.00488192
0.00425673
0.00316611
0.0054773
0.00393153
0.00281257
0.00294526
0.00235018
0.00177624
0.00322785
-0.00801135
0.00245221
0.00444077
0.00360092
0.0069064
0.00380735
0.00426936
0.00414877
0.00378759
0.00481002
0.00189468
0.00408615
0.00346829
0.00249395
0.00255013
0.00452992
0.00472661
0.00390749
0.00442472
0.00345907
0.00330572
0.00431357
0.00410557
0.00117912
0.00481197
0.0061629
-0.00116252
0.00739079
0.0059282
0.00320031
0.00470952
0.00486425
0.0039266
0.00509443
0.00341285
0.00515276
0.00512978
0.00424991
0.00402828
0.00420142
0.00408869
0.00402555
0.00431448
0.00426533
0.00301025
0.00410857
0.00246051
0.00227642
0.00239921
0.0046894
0.00328725
0.00401073
0.00352485
0.00343509
0.00191388
0.00259805
0.00121262
0.00240752
0.00274851
0.00507239
0.00371183
0.00528771
0.00518016
0.00640748
0.00518295
0.00239375
0.0024788
0.00308661
0.00336077
0.00367722
0.00338416
0.00342329
0.00314173
0.00313568
0.00480927
0.00459273
0.00408918
0.00426182
0.00612326
0.00509756
0.00517268
0.00501383
0.00304416
0.00473793
0.00191469
0.00372891
0.000334102
0.00401859
0.00415327
0.00142834
0.00289326
0.0039662
0.000347847
0.00419726
0.00369127
0.00307227
-6.89299e-05
0.00436478
0.0043188
0.00446311
0.00441495
0.00468317
0.00366621
0.00411337
0.00440625
0.00421221
0.00438415
0.00366275
0.00351428
0.00367502
0.00387433
0.00767288
0.000119682
0.00186896
0.00642755
0.0078948
0.0074051
0.00402275
0.00430068
0.00448123
0.000292115
0.0042592
0.00326729
0.00429557
0.0026251
0.00414904
0.00722315
0.00424577
0.00451477
0.0044068
0.00313136
0.00734637
0.00699816
0.00501109
0.00539519
0.00512778
0.0047441
0.0011947
0.00589301
0.00549339
0.0017525
0.000884756
0.00300367
0.00485498
0.00299275
0.00679171
-0.000547279
0.00994443
0.00701009
0.00373927
0.00384391
-0.000401106
0.00273914
0.00227457
0.00165473
-0.000821389
0.00530816
0.00736266
0.00579757
0.0045328
0.00248153
0.00407238
0.00514253
0.0013024
0.00512976
0.0019845
0.00445186
0.00234181
0.00274042
0.00196458
0.00297896
0.00397074
0.00328463
0.00412448
0.00418302
0.00449055
0.00318364
0.00430454
0.00356601
0.00416692
0.00421873
0.0039542
0.00265892
0.00268318
0.00173255
0.00524291
0.00491182
0.00378238
0.00493546
0.00512909
0.00525567
0.00512316
0.00458872
0.00411497
0.000314486
0.00377084
0.0032689
0.00435482
0.00380322
0.00487963
0.00500118
0.00482418
0.00386639
0.00167923
0.00291164
0.00814442
0.00689416
0.00240034
0.00301205
0.00265056
0.0032704
0.00456515
0.00397214
0.00208799
0.00603136
0.00295184
0.0031888
0.00343235
0.00265004
0.00286238
0.00221011
0.00465722
0.00317919
0.00412139
0.00384229
0.00359721
0.00493466
0.00447199
0.00415301
0.00453914
0.00309591
0.0035723
0.00442609
0.0038991
0.00485845
0.00435105
0.00500996
0.00394906
0.00160316
0.00303548
0.00432955
0.00324568
0.00189318
0.00358583
0.0040687
0.00312297
0.00437869
0.00743363
0.00610068
0.00552571
0.00736707
0.00216109
0.00272479
-0.00239223
0.0032478
0.00577405
0.00389373
0.00513473
0.000707834
0.00482449
0.000864693
0.00138785
0.00250813
0.00434606
0.00442671
0.00205697
0.00429927
0.00265269
0.00406364
0.0020876
0.00235962
0.0074834
0.00397775
0.00740156
0.00770647
0.00549686
0.00522081
0.00496891
0.00637389
0.00592917
0.00484143
0.00542545
0.00601798
0.00368584
0.00475634
0.00445605
0.00489398
0.00476415
0.00510966
0.00328666
0.00367806
0.00362203
0.00335176
0.00326781
0.00368484
0.00641894
0.00409006
0.00487534
0.00388138
0.00265924
0.00398828
0.00395582
0.00366286
0.000919579
0.00300435
0.00357658
0.00362203
0.00508557
0.00390421
0.00373986
0.00440154
0.00429907
0.00421179
0.0071024
0.00470571
0.0053631
0.00343463
0.00411067
0.00448563
0.00210438
0.00291617
0.00395272
0.00669822
0.00442703
0.00345407
0.00404223
0.00502529
0.0050269
0.00426324
0.00512111
0.00446674
0.00536896
0.00412479
0.00251853
0.00239611
0.00212323
0.00396973
0.00399269
0.00482323
0.00548465
0.00619385
0.00381731
0.00692178
0.00725093
0.00743389
0.00279952
0.00351819
0.00052145
0.00583277
0.00354348
0.0053473
0.00697648
0.00375765
0.00427978
0.00610631
0.00657905
0.00429911
0.00465555
0.000419072
0.00664503
-0.00791661
0.00644163
0.0037628
0.00678454
0.00773003
0.00692117
0.00660161
0.00301202
-0.0051129
0.00416674
0.00426118
0.00342178
0.00409803
0.00386199
0.00418707
0.00361754
0.0040915
0.00435678
0.00323272
0.00665857
0.0043185
0.00452865
0.00354333
0.00704801
0.00378878
0.00327991
0.00415713
0.00181561
0.0039734
0.00346862
0.00338942
0.00294459
0.00330348
0.00421253
0.00422861
0.0043586
0.00432139
0.00448863
0.00335226
0.00447988
0.0043161
0.00394752
0.0020379
0.00349344
0.00480943
0.00452113
0.000406752
0.00470051
0.00250007
0.00513758
0.00282639
0.00344022
0.00381611
0.00212583
0.00530113
0.00137876
0.00406124
0.00169222
0.0051748
0.00603959
0.0013924
0.00690908
0.00124364
0.00525691
0.00455036
0.0041374
0.00461692
0.00402907
0.00139468
0.00526541
0.00501997
0.00533054
0.00467411
0.00310878
0.00279277
0.00315343
0.00193389
0.00337513
0.00463737
0.00409813
0.003515
0.00353339
0.00419289
0.00497178
0.00423987
0.00435195
0.00433536
0.00204129
0.00365797
0.00398668
0.00530987
0.00357095
0.00440286
0.00433354
0.00376998
0.00604148
0.00473709
0.00798582
0.00616024
0.00374298
0.00327277
0.00416359
0.00375917
0.00374723
0.00345
0.00393173
0.00404362
0.00344559
0.00349491
0.00392458
0.00398863
0.00427554
0.00425603
0.00344176
0.0031897
0.00199012
0.00462152
0.00403089
0.00381075
0.00361084
0.00316936
0.00523561
0.0029631
0.00301854
0.00736089
0.00594235
0.00752202
0.00453339
0.00223032
0.000544284
-0.000439245
0.00347905
0.00159209
0.000923947
0.00289277
-0.000450868
0.00622145
0.00767359
0.00844754
0.00706403
0.00263748
0.003289
0.00141422
0.00328692
0.00503738
0.00570316
0.00553982
0.00562408
0.00545974
SCALARS CoVolArea double 1
LOOKUP_TABLE default
4718.3
4734.28
4299.45
4219.36
4442.88
3891.66
5159.89
4504.21
4344.84
3783.46
4511.75
3850.64
6586.74
5164.43
4948.78
4867.94
5644.65
6085.13
6117.39
5965.85
5761.94
6224.75
5088.36
6444.01
5367.77
5338.58
5443.56
5662.83
4679.7
5328.83
5440.52
5716.95
5435.23
5382.34
5938.17
6022.65
5531.57
4386.75
4396.92
5221.74
5293.39
5629.16
5474.7
5195.97
4572.62
4648.65
5481.71
4766.34
4905.96
5693.13
4729.06
5300.19
4965.64
4874.8
5734.82
4806.65
5213.24
4483.41
5839.2
6114.82
5799.06
5940.91
5469.95
5955.69
5407.77
5945.29
4798.73
5637.9
6793.1
5123.36
6115.28
4930.07
5195.57
5527.58
4646.18
6723.44
5031.72
5173.27
5382.65
4757.4
5557.91
4528.45
5230.79
4473.09
5250.64
4473.82
5406.47
5918.64
5723.8
6239.7
5242.97
5466.36
5201.77
5242.34
5782.95
5367.25
5321.02
4992.64
6713.45
5502.75
5076.03
5486.31
4000.24
5722.98
6961.17
6716.51
5632.17
4546.68
5771.17
4798.38
5905.4
5029.09
5192.92
5813.97
5215.47
5260.21
5654.79
4945.57
5713.68
5909.14
5109.56
5475.86
5406.3
5731.87
6246.9
5402.39
5522.71
5325.31
5847.25
5033.13
5080.83
5998.97
4507.13
7005.07
4591.36
5159.38
4909.08
4085.8
5110.77
5015.96
5329.74
5375.49
5209.93
5389.16
5406.23
5489.26
5036.44
6158.97
5605.53
5317.57
5946.92
6095.66
5790.44
5199.59
5335.13
5440.38
6432.86
5891.64
5473.46
6583.23
4574.76
4897.8
5513.4
4948.36
4903.79
5701.23
4776.02
5446.17
4409.43
4484.37
5091.28
4595.48
4661.44
4591.81
5265.17
4606.36
4601.38
5636.23
4764.18
5909.18
4932.28
5028.14
4561.52
5321.31
4993.83
4749.01
4814.76
5154.43
5582.84
6488.27
6478.65
6314.07
4816.26
5375.99
5015.6
4564.21
4946.45
4778.95
5719.57
4926.06
5050.33
5268.87
5022.13
4688.77
5065.9
5419.99
5331.9
4774.89
4954.73
5642
4737.59
4834.45
4336.35
4555.06
4905.06
6191.88
6046.92
6362.77
5885.18
5991.34
5742.36
5178.69
5977.4
5906.67
6155.95
5765.27
5601.57
6237.53
5836.19
5921.09
5084.2
5741.14
5390.63
5515.59
5351.68
5994.93
5476.59
5509.97
5476.27
5435.34
5974.63
6595.7
6683.94
6648.57
5197.33
5562.99
6276.21
5401.69
4829.64
4870.42
6039.2
5482.95
5559.8
6827.07
6028.82
5775.56
5830.72
6489.31
4996.01
5068.56
5152.56
6333.69
5559.61
5475.4
4954.74
5159.02
6103.63
7036.18
7124.37
6860.77
5603.98
5338.72
4973.9
5381.25
6206.82
5343.45
5004.42
5532.85
4752.31
5752.65
4777.33
5429.05
5054.82
4674.11
6946.5
5939.31
5677.26
6227.63
6700.44
5460.93
5802.86
6148.98
4909.29
5396.78
5011.73
4364.61
5551.85
4874.66
5843.26
4565.59
5018.15
5464.26
5115.51
4846.05
4928.05
5241.23
4472.84
4477.55
4414.08
5652.07
4495.85
5260.96
4460.34
4481.6
5124.06
6189.37
6243.56
6313.13
4484.74
4334.09
5287.09
4560.34
4576.82
4545.74
5304.32
4956.67
4984.52
6284.1
5403.46
5292.25
4867.03
5359.16
5185.58
5341.59
5330.45
6004.71
5785.74
5700.62
4779.12
5071.98
5832.87
6408.94
7111.26
6608.42
4859.45
4878.89
5711.21
4902.9
5249.23
5103.21
5665.6
5577.32
5567.76
5802.24
5307.52
5086.73
5726.87
6058.88
5202.96
5032.59
4873.33
5548.75
5057.18
5304.63
4962.45
4923.69
5539.3
6126.1
6166.19
6002.33
5433.69
5568.56
6020.07
5426.09
5201.58
5741.73
6120.4
5460.18
5542.63
5175.96
4856.96
4459.31
5265.75
5731.67
5163.95
5828.01
7130.82
5615.61
4674.07
4602.27
5051.23
5616.37
5290.53
7047.23
6675.46
7165.85
5527.95
5440.67
6440.93
5831.94
5596.92
5945.81
6481.33
5271.55
4967.48
5839.21
4777.47
4680.18
5273.74
6096.94
4888.57
4966.05
4786.97
5925.26
5138.71
4919.45
5231.65
5412.44
6035.6
6886.64
6677.89
6910.6
5083.85
5431.41
5330.9
5797.63
5372.76
5076.5
5109.12
5241.01
5796.62
4736.29
5211.08
4707.17
5564.9
5290.23
5445.73
5037.34
5157.02
5675.04
5564.65
5753.84
5352.09
6031.28
5694.67
5640.45
4647.27
5368.28
5453.28
6531.13
6417.63
6557.39
5541.29
5379.43
5923.93
5074.53
5013.88
5200.01
5375.75
5526.39
5744.92
6311.07
5788
5677.42
5761.39
6285.33
5499.91
5609.36
5538.34
5319.24
5165.26
4959.51
5269.17
5185.22
6017.11
6586.91
6602.56
6032.94
5242.21
5026.77
6735.75
4946.51
4584.41
4676.36
4577.3
5032.53
5207.75
4636.18
4629.95
4622.49
4981.27
6810.74
5200.94
6271.76
5290.47
5022.33
5521.47
3822.67
3850.11
5614.97
5142.53
8583.83
7377.68
7251.59
5033.61
4886.34
5123.84
4860.03
4829.2
4875.82
5228.89
5033.01
3976.98
5141.19
4439.57
4592.29
4113.6
4918.93
5377.52
5286.11
5385.39
5325.79
4990.59
4908.36
5135.07
5090.68
5280.33
5822.26
5808.14
5840.15
4959.7
5426.31
4840.79
4892.64
5309.57
5208.33
5365.51
5669.93
5271.59
5309.97
4935.01
5543.69
4642.88
4646.05
5402.85
4811.77
5353.21
4804.56
5664.65
6081.22
6256.04
5966.13
5285.84
5773.29
4993.08
5697.55
5880.99
4716.07
5180.54
4593.18
5203.9
6139.59
4465.08
5276.31
4523.96
4588.91
5304.34
6937.12
6358.19
6618.4
5558.98
5984.58
5379.36
5504.1
5938.89
5784.66
5670.8
5537.39
5771.35
6155.75
5432.48
5821.33
5304.07
5289.62
5601.16
6736.56
6657.79
6658.7
3962.14
4922.25
4049.07
4393.73
5318.48
5145.27
5403.91
5056.99
5062.12
5237.12
5486.13
5401.56
5206.75
5121.53
5479.23
5972.66
5983.27
5970.45
5247.43
6032.14
5547.58
5168.92
5764.04
5588.15
5335.45
5360.37
4697.57
5667.33
5506.42
5593.69
5189.16
4759.3
5191.6
7315.07
6939.51
7061.84
5028.81
6193.46
6056.54
5755.86
6715.53
4837.04
5117.84
4595.76
4605.96
5241.78
5170.94
5947
5044.34
4670.04
5079.93
5724.46
5295.13
5997.95
SCALARS SignedDistance double 1
LOOKUP_TABLE default
251.697
265.922
251.131
257.026
208.663
279.053
343.984
206.442
251.125
278.451
243.276
265.793
288.777
273.415
272.545
277.405
254.679
235.548
229.035
240.741
208.215
271.022
280.159
298.405
250.181
247.756
253.577
248.556
289.171
265.889
223.99
245.106
260.521
259.96
210.03
204.025
310.02
298.1
292.885
268.643
261.588
279.054
269.694
278.236
253.702
266.988
280.751
278.817
277.035
280.839
274.737
259.127
244.705
279.369
277.294
249.139
257.655
263.079
242.638
248.29
257.106
241.861
211.001
223.93
214.572
216.715
249.134
212.892
221.567
214.588
196.723
231.131
270.432
255.751
258.955
287.834
274.22
289.728
286.889
280.984
287.094
288.955
288.534
276.083
257.073
257.92
255.514
258.271
239.641
244.637
219.645
259.977
256.647
250.076
259.083
240.698
245.828
251.703
255.749
252.246
234.511
256.932
306.961
295.569
331.506
229.235
217.437
258.286
220.472
239.128
206.282
223.595
251.833
241.953
242.14
265.1
255.285
269.442
195.089
223.514
228.819
246.512
278.579
189.532
189.947
282.463
248.377
237.626
310.479
271.849
271.484
316.284
312.167
343.69
318.4
261.798
259.153
298.549
273.47
257.081
259.841
258.222
258.171
263.536
268.188
275.569
287.548
249.304
264.46
265.168
230.715
212.965
242.568
273.851
258.135
254.337
263.269
290.341
258.869
299.134
269.149
282.214
258.351
258.042
248.053
286.7
272.181
283.508
263.089
265.17
273.291
266.145
272.531
272.225
276.5
273.805
269.499
284.832
279.397
285.687
281.68
279.89
275.147
276.525
277.412
274.614
275.808
281.507
281.364
285.722
283.244
281.208
244.5
244.277
264.254
252.761
249.894
248.239
256.526
282.089
280.032
277.025
277.313
278.956
277.616
275.389
253.463
251.804
259.499
256.719
249.179
249.028
270.047
257.566
266.44
274.193
275.055
264.327
242.883
254.706
249.429
239.682
238.82
240.6
232.185
263.826
248.267
237.243
244.579
245.486
241.679
246.645
206.833
210.944
208.099
224.734
217.654
218.514
223.638
219.252
227.944
248.133
232.778
232.253
256.433
268.139
240.525
240.213
230.265
230.198
203.371
208.444
208.179
224.584
214.094
222.812
213.323
223.366
228.444
220.545
235.036
191.189
195.06
196.767
235.67
212.624
213.633
224.451
211.674
200.134
274.544
241.12
256.43
284.101
291.372
246.729
236.894
274.718
259.075
262.021
232.346
228.011
276.571
269.95
287.25
283.256
275.973
281.466
283.287
257.601
283.091
285.826
271.312
275.769
281.864
276.221
298.175
286.057
297.992
278.842
283.783
287.169
286.663
282.263
282.525
282.988
283.94
282.253
276.523
294.024
288.061
294.596
277.464
282.339
284.101
289.201
290.19
294.009
264.416
268.24
267.835
265.113
250.018
254.299
247.851
259.979
261.155
254.752
256.469
259.157
262.219
265.441
230.305
231.739
213.677
251.237
241.06
247.167
239.9
244.819
253.666
261.09
257.005
253.965
266.069
261.558
267.917
267.66
253.478
257.268
254.948
244.521
246.732
256.774
252.236
254.28
253.513
263.254
243.068
245.133
251.443
246.417
242.728
243.667
252.014
247.828
251.087
264.431
253.587
250.326
248.578
245.982
255.571
248.014
258.637
253.086
260.966
210.98
217.237
271.861
248.246
260.827
230.491
248.005
322.156
320.286
340.162
277.209
301.611
281.013
314.072
315.104
308.501
268.705
287.344
266.507
212.663
210.938
231.885
219.625
231.51
221.648
232.513
276.994
260.591
213.738
237.457
241.932
239.831
241.097
244.431
228.015
240.068
218.892
219.239
237.265
213.622
209.027
204.495
222.561
207.208
214.311
252.252
245.175
250.799
252.003
246.167
254.903
227.929
240.416
227.425
272.009
268.092
277.466
255.401
265.351
263.738
265.221
265.139
259.097
196.681
205.169
213.108
213.774
206.802
200.595
246.953
221.569
241.31
247.336
243.227
233.099
254.54
262.68
218.703
245.373
295.293
265.257
276.934
192.922
185.361
195.651
184.841
194.613
188.175
199.652
262.029
254.458
246.294
281.863
267.034
300.222
220.628
241.443
215.838
221.605
220.363
255.696
274.917
265.525
313.7
298.543
278.514
292.705
305.328
262.129
279.382
309.574
298.638
282.409
302.857
319.924
325.869
343.288
336.436
313.587
327.293
305.636
310.178
335.184
318.706
341.073
337.051
329.408
262.886
258.503
269.904
265.552
260.177
260.216
259.287
313.354
306.923
269.936
283.764
277.956
295.062
279.915
251.804
256.459
251.734
259.862
259.369
261.504
264.663
260.639
262.51
266.137
263.527
260.244
254.436
262.501
257.621
254.113
258.751
254.541
254.794
270.304
262.111
269.048
259.877
267.186
280.955
284.285
267.497
269.937
288.789
282.803
283.711
269.07
278.883
265.873
235.075
259.544
251.088
242.88
254.451
269.923
272.407
270.225
264.33
260.84
268.836
253.272
259.405
272.465
275.089
260.751
267.517
261.627
240.48
217.983
230.683
238.099
241.155
200.872
228.939
212.276
199.686
205.014
256.212
247.05
253.01
255.588
244.244
221.126
231.188
235.528
313.846
284.643
301.265
290.725
268.841
258.536
253.331
255.077
263.163
269.219
249.955
258.214
254.524
252.802
253.351
263.917
255.547
260.302
254.324
265.73
259.996
252.952
257.58
313.05
308.445
311.581
295.153
276.039
219.318
254.997
234.607
250.126
272.576
267.38
284.701
269.324
289.568
291.599
294.659
295.734
298.532
248.764
244.956
244.636
269.254
283.853
285.716
301.302
294.746
267.817
254.445
291.873
271.627
297.073
