# vtk DataFile Version 4.2
vtk output
ASCII
DATASET POLYDATA
POINTS 642 double
-351.813 535.308 97.3791
349.738 532.588 97.0464
-351.604 -601.139 99.3117
349.789 -598.882 99.564
-0.188764 -395.193 683.395
-0.219587 312.574 660.228
-0.165943 -373.38 -450.955
-0.0876276 326.583 -482.926
572.349 -29.8464 -255.495
559.151 -33.4541 444.675
-576.008 -29.693 -257.49
-563.258 -33.4651 446.805
-529.254 295.631 298.506
-329.652 170.177 632.65
-204.651 503.173 427.49
203.68 501.78 426.648
-0.0928647 635.116 97.5806
208.568 513.319 -240.358
-209.367 514.704 -241.224
-340.464 177.49 -450.797
-556.156 310.876 -114.271
-663.296 -31.5648 96.279
328.291 169.296 630.562
525.604 293.096 297.255
-337.604 -244.156 646.59
-0.121772 -33.2735 766.867
-538.354 -365.444 -107.141
-540.271 -367.669 305.27
-0.17305 -30.1701 -575.814
-332.025 -237.039 -437.654
551.916 308.437 -112.763
339.146 177.064 -449.589
536.928 -365.854 304.053
335.443 -243.421 644.192
210.559 -586.774 441.293
-211.248 -588.059 442.11
-0.280719 -703.134 102.107
-204.571 -566.301 -231.508
204.019 -565.171 -230.829
330.963 -236.617 -436.09
535.929 -363.968 -106.53
660.207 -31.7115 96.2435
-460.965 433.688 202.78
-387.844 423.514 377.438
-289.181 543.186 270.925
-464.198 72.7602 557.527
-452.022 245.128 484.535
-567.16 137.307 384.169
-105.732 423.145 559.13
-278.156 352.854 549.685
-171.149 252.759 669.387
-109.426 601.747 272.498
-182.753 611.727 97.9308
105.246 422.553 558.468
-0.10629 526.975 443.096
182.365 611.254 97.7515
108.849 600.725 272.212
287.628 540.891 270.212
-109.509 607.18 -79.2127
-292.718 545.622 -77.6605
292.505 545.891 -77.4846
109.052 605.848 -78.763
-109.347 440.119 -380.768
-0.134106 543.726 -259.594
108.95 439.588 -380.26
-403.042 437.903 -192.694
-474.394 445.899 -13.0763
-176.772 263.404 -489.758
-288.963 366.394 -369.093
-593.479 146.697 -200.467
-473.569 259.39 -305.434
-479.867 78.7583 -374.991
-576.944 323.906 95.3674
-648.067 -29.451 -87.384
-651.747 148.069 -14.7779
-628.611 142.287 201.747
-635.306 -34.0337 278.911
385.184 420.983 375.888
457.723 430.559 201.684
170.261 251.959 667.776
276.968 351.592 548.244
563.532 136.461 382.58
449.778 243.805 482.779
461.837 72.1979 555.538
-174.201 75.5128 732.489
-0.186588 148.45 739.472
-465.954 -140.971 559.944
-349.367 -33.354 663.385
-0.130809 -220.191 748.445
-175.611 -144.601 735.267
-177.263 -330.223 688.054
-632.351 -208 206.516
-573.3 -206.435 387.001
-575.852 -205.461 -191.381
-632.6 -207.209 -10.3652
-464.462 -503.287 206.577
-568.343 -384.828 98.5744
-462.884 -500.748 -8.04274
-351.971 -30.0894 -468.74
-469.028 -138.269 -364.407
-0.0994175 153.794 -557.541
-177.662 79.4486 -547.46
-172.672 -319.048 -471.256
-173.853 -138.426 -531.869
-0.0599861 -207.137 -529.743
287.869 365.098 -367.882
176.207 262.862 -488.73
471.336 443.161 -12.3724
400.732 435.561 -191.246
477.214 77.8479 -372.646
470.479 257.635 -303.023
588.033 145.161 -197.786
462.211 -501.215 206.147
394.981 -498.049 385.976
292.153 -616.874 276.165
463.644 -140.212 557.717
459.101 -318.154 492.191
569.456 -205.331 385.142
109.979 -511.278 582.167
288.479 -434.137 568.032
176.888 -329.764 687.187
110.55 -682.828 279.333
181.129 -673.632 100.996
-110.404 -511.926 582.868
-0.0932267 -619.787 462.03
-181.736 -675.056 100.97
-110.8 -683.61 279.465
-293.304 -618.464 276.532
109.045 -657.669 -73.0966
287.2 -602.391 -72.916
-288.162 -603.987 -73.1499
-109.465 -658.187 -73.1583
107.779 -487.616 -361.9
-0.108697 -580.419 -241.252
-108.18 -487.963 -362.315
389.524 -488.426 -182.81
460.394 -498.406 -7.75235
171.905 -318.115 -469.098
281.047 -420.486 -356.035
573.47 -204.792 -190.258
456.545 -313.958 -291.157
467.293 -138.002 -362.883
564.486 -382.666 98.5416
642.684 -29.8173 -85.8509
630.289 -206.383 -10.4454
627.058 -206.689 205.869
630.118 -34.1391 277.319
175.075 -144.412 734.393
348.226 -33.3364 661.738
173.323 75.159 730.722
-397.088 -499.902 387.157
-289.592 -435.337 569.414
-462.042 -319.689 494.367
-281.689 -421.252 -356.931
-390.772 -489.668 -183.519
-458.147 -314.828 -292.396
351.68 -29.9893 -468.266
172.821 -138.031 -529.609
177.086 79.4407 -546.518
623.248 140.627 200.891
645.3 146.437 -13.9246
572.336 321.44 95.352
-410.781 489.693 150.463
-379.896 495.886 239.43
-323.266 545.539 185.647
-464.957 365.264 341.569
-428.606 433.816 293.618
-501.201 368.99 252.25
-249.336 529.015 352.148
-342.483 488.628 327.29
-300.206 469.973 406.297
-518.582 20.2165 506.085
-522.783 106.82 475.536
-570.72 53.0361 418.462
-396.206 210.446 564.04
-462.75 161.446 525.478
-400.889 123.052 599.894
-552.851 217.987 344.134
-514.799 193.864 437.917
-496.152 273.401 395.515
-53.3903 370.756 613.331
-139.51 341.736 619.574
-86.5172 286.021 670.776
-243.949 433.067 493.126
-194.224 392.695 559.119
-156.26 467.025 496.566
-252.539 213.711 656.172
-226.907 305.3 613.302
-306.958 264.537 596.831
-423.149 337.404 433.573
-369.516 303.147 522.127
-336.679 393.041 467.839
-239.608 585.756 185.889
-269.438 579.723 98.1406
-159.481 560.158 353.442
-201.174 579.122 273.857
-92.8485 631.397 97.686
-147.329 613.659 186.425
-55.856 626.277 185.952
52.9415 370.45 612.904
-0.190828 428.271 564.675
103.4 521.652 439.632
53.4801 480.021 504.862
155.595 466.126 495.799
-53.8383 480.311 505.151
-103.866 522.054 439.947
268.186 578.138 97.8934
238.434 583.772 185.389
321.372 542.973 185.173
55.5675 626.409 185.918
146.681 612.412 186.05
92.6086 630.906 97.673
248.082 527.111 351.263
200.278 577.455 273.367
158.717 558.928 352.955
-55.2685 572.866 361.895
54.9967 573.011 362.022
-0.135851 607.162 274.034
-239.722 586.732 9.53241
-325.051 544.392 8.93669
-55.758 629.765 8.48483
-147.359 615.639 8.7299
-253.387 535.005 -161.339
-202.142 582.851 -80.0711
-161.069 568.237 -162.995
323.616 542.802 8.77352
239.151 585.657 9.57395
160.505 566.992 -162.507
201.812 581.428 -79.5161
252.46 533.239 -160.289
147.1 614.987 9.01137
55.4852 629.365 8.62256
-55.3172 387.689 -437.226
-0.0990683 446.36 -387.315
55.0797 387.511 -437.016
-105.87 536.283 -254.987
-55.2327 497.783 -324.301
-160.919 482.815 -314.971
160.26 481.803 -314.2
54.9637 497.554 -324.139
105.449 535.548 -254.594
-0.208896 615.954 -81.748
55.301 582.908 -172.307
-55.6868 583.505 -172.507
-390.781 505.783 -48.2692
-417.131 495.106 40.8582
-310.057 482.151 -220.362
-352.892 499.514 -137.994
-521.795 384.084 -65.323
-443.684 447.123 -104.568
-485.944 380.18 -156.779
-89.4117 298.288 -492.305
-144.964 357.17 -442.856
-318.54 275.821 -416.472
-235.298 318.871 -435.509
-260.518 222.443 -475.43
-201.134 408.236 -380.412
-252.405 447.149 -310.497
-591.553 59.0704 -233.139
-545.339 114.723 -294.308
-533.702 25.0895 -320.382
-521.891 289.265 -214.209
-539.098 205.547 -256.628
-580.469 231.265 -159.735
-416.257 130.471 -420.118
-482.262 170.758 -345.644
-413.068 221.579 -385.267
-351.997 409.004 -287.176
-387.574 318.767 -344.111
-444.619 354.502 -254.147
-474.18 445.609 95.0882
-575.865 323.467 -10.3226
-531.847 389.142 40.5413
-523.84 382.575 149.114
-560.071 314.151 197.819
-618.777 -29.6838 -174.884
-631.765 59.1945 -146.913
-667.128 60.2279 39.2134
-659.687 60.5394 -53.217
-659.399 -29.6169 4.30616
-629.296 149.466 -108.851
-613.272 233.037 -66.8518
-608.696 52.9173 334.891
-605.051 -33.6787 365.286
-584.528 220.68 251.336
-601.338 140.134 295.242
-654.086 -33.5975 188.713
-635.336 54.4024 242.086
-652.135 56.9276 149.317
-622.856 240.113 39.922
-652.659 149.376 94.6259
-614.758 236.977 149.371
377.451 493.102 238.651
408.231 486.632 149.844
298.516 467.895 404.999
340.419 486.168 326.142
497.244 365.877 250.624
425.506 431.114 292.33
461.042 362.115 339.836
85.966 285.56 669.969
138.869 341.028 618.486
305.65 263.474 594.945
225.94 304.338 611.657
251.326 212.75 653.949
193.441 391.706 557.98
242.803 431.638 491.975
566.78 52.6385 416.638
519.699 106.064 473.606
515.573 20.007 504.153
493.713 271.684 394.389
511.938 192.779 436.191
549.682 216.561 343.096
399.022 122.27 597.87
460.299 160.468 523.462
394.304 209.352 562.028
334.845 391.082 466.327
367.854 301.777 520.55
420.81 335.331 432.162
-87.1747 204.335 712.96
-0.202555 233.596 705.937
-254.966 125.171 689.533
-174.813 166.474 707.458
-0.180081 59.0128 760.076
-88.3008 113.333 743.221
-88.4675 22.2513 758.638
-520.256 -87.1174 507.212
-471.864 -33.2864 564.78
-345.394 -139.425 657.644
-412.026 -87.8245 617.097
-406.06 -194.244 607.613
-411.1 20.5123 615.867
-344.142 70.1551 654.907
-0.127398 -310.742 724.938
-89.8174 -279.157 728.785
-89.6769 -366.237 691.899
-88.7503 -89.2691 760.485
-89.5429 -183.451 749.179
-0.119503 -126.657 762.354
-260.744 -289.255 673.387
-179.848 -240.107 722.129
-260.101 -197.32 700.69
-264.946 21.5204 705.157
-265.964 -89.4466 707.38
-176.874 -33.3332 741.565
-613.372 -120.778 336.14
-573.885 -120.476 419.877
-654.501 -121.471 152.866
-641.557 -121.729 244.394
-562.213 -289.466 348.751
-608.656 -208.88 298.38
-593.655 -290.559 257.587
-579.014 -118.475 -226.067
-617.992 -118.727 -141.785
-592.616 -289.218 -60.7507
-611.042 -208.326 -103.052
-561.795 -287.637 -151.462
-644.637 -120.082 -49.573
-656.744 -121.031 42.4653
-412.139 -557.601 153.48
-470.452 -508.85 98.7751
-411.466 -556.039 44.9551
-561.278 -380.677 202.788
-522.187 -448.017 152.855
-507.517 -439.472 257.557
-505.406 -436.82 -59.0833
-521.391 -447.189 44.5978
-560.009 -379.588 -5.40285
-641.972 -210.673 98.1706
-608.754 -299.632 43.6922
-609.317 -300.07 153.257
-480.864 -29.8892 -375.703
-526.029 -84.4887 -314.593
-352.247 75.1005 -469.147
-420.81 24.9798 -428.731
-403.915 -189.569 -405.769
-415.005 -84.83 -421.868
-346.157 -135.692 -459.587
-0.0959781 242.928 -526.268
-89.4586 211.842 -531.855
-89.3459 25.48 -570.32
-90.2762 117.985 -560.883
-0.104616 62.4868 -575.215
-179.311 172.478 -524.934
-262.029 130.673 -507.445
-89.3544 -349.901 -468.05
-88.8891 -266.91 -507.791
-0.140729 -292.311 -494.165
-255.897 -190.357 -491.349
-175.45 -231.096 -506.483
-254.065 -280.209 -459.205
-0.149658 -120.15 -562.166
-87.9781 -174.248 -538.082
-88.1095 -84.6551 -562.751
[...]
POINT_DATA 642
SCALARS Mean_Curvature double 1
LOOKUP_TABLE default
0.0027627
0.00249822
0.00336826
0.00323843
0.00360776
0.00350195
0.000569779
0.00353239
0.00356732
0.00337755
0.00366696
0.00347946
0.0016242
0.0028432
0.00304769
0.00304207
0.00239633
0.00281643
0.00282011
0.00239231
0.00282316
0.00243465
0.00286933
0.00154334
0.00371965
0.00269038
0.00285189
0.00275045
0.00334292
0.00286522
0.00281482
0.00263742
0.00281752
0.00361548
0.00295899
0.00298751
0.00331914
0.00283043
0.00275965
0.0028871
0.00289241
0.00286466
0.00219336
0.00316752
0.00313322
0.00301344
0.00292612
0.00298177
0.00295155
0.00270165
0.00313596
0.00327715
0.0029526
0.00294675
0.00228264
0.00321023
0.00317747
0.00313259
0.00300574
0.00212445
0.00295689
0.00281326
0.0030362
0.00310373
0.00305244
0.00311958
0.00355051
0.00302851
0.002127
0.0033733
0.00311247
0.00327522
0.00343654
0.00307614
0.00378654
0.00240395
0.00284118
0.00310973
0.00201562
0.00307426
0.00273955
0.00300112
0.00295479
0.00303466
0.00319828
0.00312407
0.00224486
0.00287853
0.00261827
0.00195524
0.00283251
0.00291549
0.00273735
0.00299903
0.00260843
0.0026839
0.00311817
0.0029236
0.00194148
0.00264524
0.00289677
0.00342551
0.00359517
0.00250075
0.00126702
0.00219871
0.00301385
0.00345409
0.00309502
0.00341189
0.00311407
0.00317191
0.00288812
0.00303363
0.0032732
0.00249966
0.00286617
0.00274523
0.00311264
0.00306412
0.00296791
0.00328112
0.00232214
0.00313442
0.00311236
0.00231986
0.00327645
0.00326485
0.00307888
0.0028141
0.00274744
0.00297905
0.00339645
-0.000167402
0.00333884
0.00304762
0.00288384
0.00313214
0.00304248
0.00301204
0.00297959
0.00276549
0.00312288
0.00264798
0.0030575
0.00279812
0.00270469
0.00212336
0.00302718
0.00314
0.00301707
0.00304244
0.00288225
0.00298743
0.00302499
0.00296949
0.00249903
0.00226571
0.00355924
0.00211371
0.00365803
0.00333665
0.0021735
0.00311274
0.00313567
0.00311576
0.00317458
0.00238469
0.0031783
0.0031627
0.003091
0.00297571
0.00300927
0.00298427
0.00298775
0.00303196
0.00301367
0.00272125
0.00301894
0.00247832
0.00260409
0.00260009
0.00316208
0.00278926
0.00288262
0.0027774
0.00293452
0.0025557
0.00269283
0.00231272
0.00259398
0.0027314
0.00313981
0.00292361
0.00318164
0.00314935
0.0034314
0.00304904
0.00281096
0.00258767
0.00274594
0.00296443
0.00281351
0.0027826
0.00282772
0.00289317
0.00296306
0.00304892
0.00309939
0.0030082
0.00292541
0.00340265
0.00317153
0.00316012
0.00314657
0.00302731
0.00322199
0.00239393
0.00289951
0.00135104
0.0028651
0.00286948
0.00209159
0.00277792
0.00293204
0.00133225
0.0029334
0.00294111
0.00262454
0.00185319
0.0029457
0.00284951
0.00305618
0.00306011
0.00309607
0.00293997
0.00300965
0.00306659
0.00306139
0.00306304
0.00294849
0.00307554
0.00287267
0.00290588
0.00432938
0.00311731
0.00304888
0.00340892
0.00372426
0.00292044
0.00298178
0.00303699
0.00305486
0.00225122
0.00303656
0.00272081
0.00308152
0.00246009
0.00327172
0.00387644
0.0030886
0.00310681
0.00293253
0.0028477
0.00404875
0.00297854
0.00316245
0.00324421
0.00330274
0.00310003
0.00303189
0.00337362
0.00332131
0.00292311
0.00317175
0.00303568
0.00341307
0.00389734
0.00430762
0.00120778
0.003044
0.00359484
0.00293651
0.00293481
0.0011948
0.00239214
0.00255761
0.00210476
0.00126968
0.0031307
0.0041499
0.00383738
0.00311314
0.0020173
0.00306341
0.00316904
0.00212926
0.00323669
0.00276434
0.00314041
0.00258419
0.00270438
0.00254424
0.00282206
0.00289637
0.0028011
0.00301145
0.00300913
0.00306369
0.00272207
0.00302942
0.00290415
0.00300836
0.00301097
0.0029679
0.00268775
0.00266933
0.00236058
0.00319653
0.00314922
0.00295528
0.00316424
0.00315772
0.00317772
0.00311788
0.00305045
0.00302019
0.00166617
0.0027886
0.00328742
0.00302925
0.00291327
0.00372936
0.00325127
0.00308732
0.0030754
0.00257423
0.00243379
0.00314526
0.00404568
0.00356561
0.00276716
0.00263593
0.0027291
0.00314219
0.00292451
0.00258886
0.00332921
0.00276025
0.00269623
0.00287518
0.00233811
0.00236122
0.0025851
0.00308839
0.002813
0.00269974
0.00286372
0.00274392
0.00316203
0.00308783
0.00297237
0.0030474
0.00271455
0.00286777
0.00306906
0.00296807
0.00314514
0.0030485
0.00312539
0.00325445
0.0023265
0.00275404
0.00328764
0.00280492
0.00238931
0.00285118
0.00306574
0.00284685
0.00318167
0.00362835
0.0035136
0.00271245
0.0034303
0.00329042
0.00322517
0.000787191
0.00281207
0.00305466
0.00272797
0.00383718
0.00198663
0.00344728
0.00303152
0.00280916
0.00225894
0.00303852
0.00306855
0.00231864
0.00307744
0.00260234
0.00294936
0.0026239
0.00336272
0.00417075
0.0029776
0.00291636
0.00372573
0.00319727
0.0032268
0.00340353
0.00324986
0.00345553
0.00313005
0.00308215
0.00329532
0.00290457
0.0030588
0.0031013
0.00320385
0.00310106
0.00321352
0.00278735
0.00258953
0.00279282
0.00279918
0.00269804
0.00286805
0.00300808
0.0032722
0.00310745
0.00294818
0.00254942
0.00301364
0.0030441
0.003016
0.00255115
0.00275931
0.00294399
0.0028877
0.00321316
0.00295761
0.00283794
0.00301667
0.00301167
0.00304078
0.00337151
0.00303515
0.00310815
0.00291018
0.003094
0.00310165
0.00250921
0.00269136
0.00273021
0.00390829
0.00308375
0.00321366
0.00304707
0.00314718
0.00314318
0.00312652
0.00317204
0.00308173
0.00322821
0.00312987
0.00249581
0.00282654
0.00246612
0.00326471
0.00317021
0.00320046
0.00298292
0.00363656
0.00284037
0.00311093
0.00307131
0.00401338
0.00272294
0.00289413
0.00243091
0.00296475
0.00287959
0.00256365
0.00353441
0.00302836
0.00279102
0.00356682
0.00275043
0.00278082
0.00290339
0.00253822
0.00344171
-0.000169137
0.00342893
0.00349527
0.00349597
0.00366087
0.00369921
0.00346036
0.00343271
0.000375545
0.00305493
0.00309072
0.0028343
0.00299187
0.00302682
0.0030065
0.00287248
0.00296091
0.00302371
0.00342912
0.00357724
0.00306219
0.00287744
0.00291686
0.0028084
0.00292253
0.00249724
0.00297507
0.00221798
0.00295294
0.00286286
0.00285991
0.00275904
0.00282253
0.00297623
0.00302963
0.00303048
0.00302092
0.00304729
0.00285088
0.00306837
0.00296404
0.00291877
0.002915
0.00258631
0.0031402
0.00286619
0.00142524
0.00307481
0.00265675
0.00325125
0.0027384
0.00290002
0.00281841
0.00257622
0.00328071
0.00239151
0.00289911
0.00266915
0.00318127
0.00338486
0.00351471
0.00387887
0.00242727
0.00322735
0.003073
0.00299433
0.00308726
0.0028858
0.00184061
0.00321414
0.00310366
0.00319709
0.00315302
0.00282144
0.00259464
0.0027303
0.00262023
0.00286633
0.0030875
0.0031085
0.00282295
0.002882
0.00304024
0.00303599
0.00301436
0.00304234
0.00302062
0.00253009
0.00291664
0.00302548
0.00297586
0.00301332
0.00306242
0.00307167
0.00296536
0.00362232
0.00284974
0.00301684
0.00271576
0.00303469
0.00283843
0.00297814
0.00288837
0.00294046
0.002993
0.00288849
0.00295163
0.00284655
0.00286585
0.00293718
0.00302001
0.00301099
0.0030197
0.0031861
0.00269394
0.00238398
0.00334803
0.00309129
0.003384
0.0033143
0.0023553
0.00278509
0.00285443
0.00284418
0.00344009
0.0027309
0.00362428
0.00324138
0.00216553
0.00272972
0.00267937
0.0028773
0.0019152
0.00199235
0.0025245
0.00124245
0.00344171
0.00365998
0.00293544
0.00436283
0.00345798
0.00333199
0.00333329
0.00328337
0.00321467
0.00336389
0.00391635
0.00318375
0.00377379
SCALARS CoVolArea double 1
LOOKUP_TABLE default
7113.38
7078.44
7042.78
6999.67
7306.23
6861.81
6925.53
7241.43
7080.36
6832.32
7156.38
6898.58
9054.18
8910.28
8899.89
8858.65
9110.57
9293.09
9325.06
9367.22
9465.49
9156.4
8857.22
8970.38
9186.73
9102.91
9038.02
9125.26
9059.49
8981.17
9344.76
9305.78
9029.98
9137.64
9435.02
9466.27
9084.95
8840.79
8814.23
8936.17
8969.49
9016.09
8650.37
9293.42
8524.02
8442.97
9277.03
8418.2
8412.67
9302.57
8437.26
9419.13
8619.63
8395.21
9345.14
8580.25
9401.3
8467.49
9609.83
8811.78
8737.64
9608.4
8867.2
9707.58
8847.75
9824.7
8764.78
8888.8
9868.41
8943.62
9895.78
8807.59
9597.61
8744.92
9670.67
9514.2
8496.01
9222.71
8572.37
8410.85
9245.29
8319.06
9191.14
8369.95
9417.26
8494.76
8622.46
9486.62
8823.99
9645.24
8904.34
9426.47
8576.65
8630.48
9487.87
8688.23
9460.21
8570.48
9649.19
8668.44
8851.95
9644.44
8336.63
9485.5
8558.7
9808.64
8868.35
8676.61
9746.54
8735.24
9791.23
8832.07
8613.01
9636.91
8729.44
8543.61
9526.43
8478.33
9017.14
9776.83
8870.15
9764.67
8657.06
9035.38
9971.65
8682.8
9783.05
8780.76
9337.81
8489.15
8529.59
9353.4
8321.84
9361.34
8334.04
9327.99
8509.7
8329.99
9295.69
8556.87
9363.8
8612.13
9371.97
8660.35
9374.85
9338.58
8409.45
9609.71
9414.96
9389.63
9706.58
9835.21
9611.57
9339.41
9382.34
9416.54
9571.39
9466.96
9614.95
9414.6
9532.11
9465.95
8537.58
8657.56
8458.49
9249.69
8599.44
8497.67
8391.8
8558.82
9204.43
8301.36
8488.98
8273.08
9178.04
8491.23
8353.74
8431.59
8487.2
9234.84
8273.24
8508.64
8272.31
9190.7
8516.45
8335.24
8364.82
8534.3
9203.79
10340.5
10335.2
10334.8
8657.83
8530.91
9249.88
8625.95
8538.09
8673.59
9386.54
8265.99
8495.87
9200.81
8517.66
8305.99
8528.08
9227.73
8484.98
8616.3
8411.13
9377.46
8650.57
8518.05
8343.21
8593.54
9216.43
10413.6
10397.3
10484.6
8821.21
8634.27
9463.85
8764.46
8753.49
8868.85
9585.19
8570.38
8764.97
9567.32
8838.57
8711.81
8742.04
9458.65
8726.83
8952.37
8717.09
9612.4
8944.51
8772.17
8745.33
8932.66
9590.68
10665.6
10712.4
10719.4
8858.22
8589.05
9682.07
8936.69
8816.79
8962.21
9791.76
8732.73
8963.81
9761.43
9021.67
8823.78
9003.6
9713.56
8674.95
8979.51
8645.02
9827.83
9097.44
8923.69
8754.43
9024.39
9743.79
10914.8
10949.6
10958.6
8803.78
9683.83
8881.95
8763.79
9406.52
8603.9
8907.47
9481.57
8854.73
8653.75
9010.3
9744.32
8548.14
8303.01
9414.31
8658.91
8520.95
8713.75
9474.01
10729.9
10591.4
10561.3
8589.92
8476.1
9145.43
8487.15
8427.46
8531.69
9184.62
8258.62
8485.32
9147.03
8496.14
8330.04
8479.6
9141.71
8190.83
8407.76
8219.89
9140.9
8395.36
8326.62
8289.83
8422.38
9111.19
10266.2
10256.2
10255.8
8541.71
8280.38
9267.16
8565.95
8468.77
8614.86
9372.24
8383
8599.63
9491.79
8710.89
8584.66
8597.68
9272.88
8730.47
8937.79
8790.41
9497
8893.37
8672.85
8716.69
8882.61
9521.8
10502.2
10643.2
10588.9
8579.84
8366.8
9350.14
8603.32
8537.25
8654.76
9380.72
8577.67
8785.41
9376.39
8719.13
8494.62
8797.98
9433.79
8515.15
8691.94
8428.64
9398.45
8720.28
8597.69
8483.42
8676.9
9360.9
10481.4
10498.9
10489.8
8821.04
8589.06
9598.87
8864.55
8507.15
8799.34
9416.8
8732.85
8971.72
9475.36
8906.26
8658.8
8953.77
9615.26
8232.77
8547.92
8413.64
9334.02
8566.04
8376.55
8436.42
8643.44
9368
10703.4
10621.2
10623.4
8942.33
8718.76
9668.86
8971.42
8779.26
8983.05
9688.91
8520.36
8781.04
9687.67
8885.13
8716.91
8873.37
9627.15
8552.51
8885.91
8573.1
9662.39
8943.31
8694.47
8802.05
8987.46
9709.67
10838.2
10858.8
10859.4
8452.9
8772
8517.77
9436.55
8779.75
8510.63
8753.1
8850.4
9645.06
8296.81
8603.8
8277.41
9448.73
8683.54
8537.2
8444.58
8652.3
9386.55
8853.01
9063.59
8780.29
9724.89
9066.64
8912
8661.13
8999.37
9563.97
10652.8
10708.2
10776.6
8802.49
8479.16
9747.18
8893.39
8536
8833.76
9532.73
8857.76
9130.94
9854.07
9158.9
8937.54
9147.83
9836.53
8525.44
8840.71
8575.63
9536.17
8853.67
8542.31
8799.77
8932.12
9774.63
10984
10992.6
10864.8
8635.97
8379.48
9374.7
8627.04
8350.64
8546.97
9109.28
8419.61
8669.65
9129.63
8573.24
8387.31
8646.65
9379.17
8237.08
8553.76
8245.25
9099.74
8501.35
8215.76
8230.57
8508.52
9114.71
10517.8
10378
10368.6
8582.89
8379.81
9204.79
8560.11
8415.84
8583.62
9254.43
8224.08
8365.76
9205.73
8489.98
8340.53
8444.39
9178.96
8498.12
8672.64
8516.94
9268.56
8614.55
8428.31
8462.71
8629.72
9251.33
10344.9
10355
10374.4
8621.69
9282.84
8604.66
8634.15
9295.77
8512.92
8699.76
9312.8
8688.05
8543.6
8625.24
9290.87
8476.28
8223.23
9272.86
8546.6
8405.34
8507.93
9251.72
10404.9
10391.1
10391.6
8921.56
9471.21
8850.58
8878.03
9475.28
8517.9
9209.68
8521
8640.06
9433.73
8522.04
9352.54
8595.68
8537.11
9227.54
10585.6
10455.4
10553.8
8828.19
9702.84
8907.69
8845.44
9517.87
9085.5
9632.1
9046.32
9099.31
9771
8693.43
9472.78
8738.28
8758.37
9515.87
10849.6
10792.6
10734.7
8377.24
9211.43
8467.79
8522.8
9258.05
8633.05
9319.32
8645.94
8612.93
9249
8738.89
9299.02
8683.77
8673.34
9330.56
10391.9
10431.1
10405.4
8749.75
9369.09
8733.74
8787.65
9527.34
8530.14
9350.29
8616.33
8546.62
9302.57
8958.28
9569.15
8927.12
8886.85
9457.03
10589.7
10600.3
10653.6
8462.92
9337.06
8615.84
8562.01
9315.06
8799.6
9603.11
8877.64
8746.12
9350.49
8708.83
9294.83
8654.74
8771.06
9558.93
10455.7
10582.8
10432.9
SCALARS SignedDistance double 1
LOOKUP_TABLE default
407.103
425.12
407.14
418.513
327.356
449.132
518.053
337.752
402.549
452.261
387.604
432.132
467.262
444.043
440.471
448.56
410.727
379.243
369.965
368.009
325.162
434.264
455.547
484.683
393.279
401.988
415.187
404.521
430.489
430.573
348.214
375.826
423.052
407.911
339.559
330.702
459.384
454.908
455.2
437.204
427.922
447.712
431.522
447.475
412.989
435.576
458.05
453.672
452.995
458.541
443.722
417.165
398.025
457.213
451.624
403.906
418.101
427.012
389.502
397.488
405.626
392.513
345.306
362.99
350.171
344.212
379.093
346.808
357.101
329.537
321.952
363.96
409.894
404.077
376.319
462.564
443.129
465.323
454.391
453.176
468.679
470.684
471.276
449.981
416.215
416.999
418.062
421.259
382.476
397.765
346.618
421.131
418.809
408.629
419.328
395.108
402.088
411.438
413.662
411.01
354.771
390.589
467.415
450.925
506.052
366.441
353.677
394.288
355.078
375.559
339.035
354.126
411.238
388.756
388.849
433.298
411.73
438.681
316.592
356.767
355.036
372.348
432.121
309.587
308.16
431.086
370.356
377.707
480.994
439.984
435.139
485.631
486.719
520.537
491.636
429.83
424.646
463.541
442.558
420.236
426.674
420.995
421.682
419.535
433.459
444.711
465.849
404.024
430.838
427.387
372.208
343.263
392.515
439.168
422.65
417.497
423.659
450.631
395.813
480.871
402.381
430.144
416.206
418.845
405.755
458.168
437.498
451.085
425.643
428.516
441.238
433.656
444.082
442.703
451.058
446.775
439.252
463.735
455.473
464.898
455.75
453.824
443.674
451.676
454.153
449.152
445.837
456.191
456.581
463.809
461.3
457.304
400.781
399.825
426.308
410.79
400.145
403.216
415.355
457.416
457.315
448.075
453.969
455.402
453.379
445.657
412.639
412.058
422.168
413.719
407.855
401.244
436.769
419.214
431.575
440.154
438.809
428.332
396.645
406.37
398.304
391.775
384.865
391.24
378.452
416.466
403.756
385.802
397.429
393.618
395.296
396.677
339.132
344.342
341.03
364.657
353.488
355.773
363.302
355.642
369.544
394.094
378.739
376.401
387.648
413.076
372.236
370.823
348.139
349.802
328.161
340.221
341.59
358.383
349.806
358.589
349.036
361.045
359.675
342.583
372.565
316.016
318.605
319.485
362.81
332.671
340.732
350.692
339.102
326.16
422.016
363.786
390.455
436.143
454.075
391.672
366.726
423.575
390.782
420.676
339.704
342.599
449.016
437.604
465.677
460.121
444.508
455.431
452.25
386.496
422.761
436.337
438.045
437.333
454.647
445.089
473.934
458.502
478.179
449.056
460.297
467.025
465.305
456.86
462.132
461.569
461.669
460.116
450.041
479.171
470.177
479.632
452.135
460.955
463.625
470.284
473.025
477.994
427.075
432.447
432.663
428.427
405.691
412.352
403.326
423.022
425.594
414.585
418.553
411.668
427.665
431.442
357.549
361.931
335.637
402.125
390.011
397.186
365.688
378.1
399.937
422.762
414.804
411.179
428.437
424.982
432.363
429.058
412.111
420.11
413.349
400.723
402.894
417.068
411.216
414.953
410.392
423.154
397.662
400.137
408.983
402.414
397.664
398.061
413.161
404.998
410.473
419.866
411.644
407.447
395.533
400.345
394.183
391.209
420.991
412.083
423.184
342.076
348.395
408.808
372.243
390.528
358.645
377.837
497.622
493.785
514.926
439.849
461.588
443.866
472.202
482.251
457.846
416.976
434.19
427.205
347.924
343.701
371.799
358.141
368.906
359.786
366.378
424.526
396.96
345.912
363.647
367.707
377.297
375.708
387.006
358.892
377.074
352.54
349.964
371.34
344.72
340.726
336.968
357.249
340.771
348.882
412.284
399.461
406.098
408.413
401.671
414.995
358.937
383.963
362.881
442.402
437.345
447.255
407.765
426.268
427.139
431.417
428.37
418.643
316.413
331.706
339.356
344.327
334.395
325.206
379.979
351.801
377.145
398.535
386.788
371.253
406.287
423.246
345.586
377.808
445.986
408.159
412.721
312.129
303.509
315.506
303.172
316.76
306.859
321.136
417.263
401.397
398.353
415.146
405.387
447.591
349.849
370.916
340.278
331.452
328.47
370.69
439.715
430.843
481.182
457.609
446.698
454.223
469.059
422.124
435.715
471.856
453.471
444.327
460.287
485.792
503.501
520.025
511.214
487.695
505.021
470.506
473.527
511.076
492.042
513.499
509.911
504.108
429.783
422.072
439.137
434.013
426.488
427.461
426.287
490.426
475.079
438.809
451.018
446.898
457.705
448.039
412.52
418.867
411.288
426.12
424.389
426.663
430.551
425.961
430.292
434.84
431.701
427.718
416.34
428.291
421.565
416.179
422.198
407.683
415.737
436.5
423.85
433.644
423.634
431.802
451.042
460.643
433.721
440.291
464.301
453.507
455.653
433.722
445.926
430.373
365.194
411.619
386.009
393.447
404.851
439.751
442.583
439.882
431.109
424.928
433.112
410.112
418.85
439.032
444.458
422.645
433.216
421.719
389.851
350.162
370.272
387.006
390.838
324.411
361.835
340.684
324.469
332.684
419.033
399.38
408.259
405.716
390.086
355.454
369.259
379.954
479.425
445.958
458.458
449.427
434.151
420.681
416.289
418.066
428.13
435.04
408.106
422.416
416.017
413.674
415.621
429.466
419.454
425.129
406.827
432.555
422.314
400.452
400.495
487.364
459.56
478.472
459.278
444.508
351.661
387.594
364.543
375.307
411.547
434.255
437.295
423.938
470.147
466.126
476.42
479.362
483.935
385.823
368.808
366.764
410.805
441.367
437.024
472.307
453.749
408.9
386.183
446.239
410.674
457.302
