# vtk DataFile Version 4.2
vtk output
ASCII
DATASET POLYDATA
POINTS 642 double
-176.024 269.206 91.3142
163.83 255.639 79.0053
-195.026 -325.621 123.459
180.009 -319.332 128.006
-4.70826 -294.611 442.098
-6.70227 90.3569 382.663
1.39318 -181.059 -116.419
-2.87595 188.835 -255.545
300.341 28.2192 -97.3314
244.118 -52.8732 277.363
-318.007 31.2473 -100.581
-267.151 -56.5689 279.535
-220.785 134.373 166.127
-153.274 32.1405 363.198
-105.614 240.776 216.438
90.818 239.29 214.843
0.416182 308.282 72.7526
110.988 258.444 -117.262
-112.592 266.141 -120.675
-200.122 112.071 -185.769
-348.611 174.96 -66.3631
-322.653 -38.6604 54.0312
146.845 28.4199 354.536
212.46 112.822 166.255
-152.776 -215.784 394.273
-3.23012 -42.4325 447.699
-273.059 -207.08 -3.12476
-268.825 -228.868 211.71
-5.12605 68.2818 -249.367
-182.732 -127.362 -159.495
324.366 168.296 -65.5344
195.636 107.27 -189.704
250.551 -223.762 206.091
137.092 -210.934 386.997
99.2937 -376.693 326.609
-106.174 -380.228 331.096
-1.83366 -352.334 212.983
-174.504 -265.537 -43.0786
161.226 -266.014 -43.3513
173.112 -128.457 -150.836
259.94 -201.228 -7.23077
310.087 -34.1648 45.82
-209.662 225.672 119.122
-167.992 222.236 193.012
-142.75 278.602 160.974
-220.876 -5.07059 330.245
-209.214 67.6858 287.563
-257.751 20.2727 248.144
-55.8868 181.645 302.315
-115.884 149.053 301.216
-62.0406 67.0595 395.022
-82.9459 295.554 157.634
-93.7685 308.975 88.726
43.9677 181.094 300.328
-1.18136 234.637 235.796
81.3233 308.278 84.0457
69.2687 295.591 158.709
125.567 272.299 158.812
-61.0735 307.143 -15.6788
-179.517 255.541 -31.4031
169.94 247.112 -26.4493
53.6887 307.169 -10.9344
-61.2581 242.649 -202.126
-4.09704 286.345 -132.298
51.954 240.204 -200.6
-278.83 228.156 -84.2886
-296.69 211.375 -55.2705
-95.6703 153.492 -256.465
-177.745 202.711 -171.829
-361.022 123.818 -88.1135
-314.15 153.609 -146.779
-294.444 94.0536 -156.648
-322.688 157.812 -14.751
-331.939 24.3367 -38.6467
-355.553 124.867 -59.2433
-289.367 67.3492 75.5784
-296.64 -71.5951 190.565
144.631 212.871 190.925
187.786 215.765 96.2819
49.9479 66.2591 387.258
106.043 143.515 296.85
238.6 22.3888 246.044
197.825 63.2769 281.749
206.844 -9.43603 324.763
-64.0931 7.01022 432.141
-7.27751 29.37 432.442
-226.464 -112.967 335.713
-172.593 -49.6005 382.944
-2.30333 -193.641 442.969
-79.7875 -138.459 436.675
-95.0712 -253.438 438.337
-309.495 -143.747 151.122
-280.452 -141.189 248.22
-303.772 -105.431 -55.0972
-314.56 -117.303 34.3628
-243.246 -290.887 167.757
-294.128 -227.572 107.948
-246.812 -271.728 64.3667
-203.254 10.3274 -179.814
-257.74 -61.4011 -131.059
-4.24793 121.283 -278.7
-78.9052 116.358 -257.968
-170.294 -150.897 -142.477
-121.832 -35.5688 -201.117
9.73988 -13.6047 -167.938
168.668 194.131 -163.956
88.4182 150.668 -253.626
274.583 206.945 -49.4488
259.401 226.222 -84.1462
280.299 88.157 -150.958
295.039 149.971 -139.841
339.37 112.031 -85.033
226.431 -282.734 168.388
177.218 -308.087 280.822
130.547 -356.23 251.575
212.299 -102.866 330.109
206.413 -216.973 315.248
262.037 -139.675 239.778
46.5908 -348.337 405.802
129.103 -293.866 386.792
82.6225 -253.113 434.856
47.7984 -395.686 283.463
109.83 -346.237 164.095
-55.6599 -352.096 410.519
-4.73231 -412.908 347.779
-119.978 -346.749 170.481
-56.7427 -396.795 287.429
-140.92 -362.374 254.23
139.467 -299.495 53.7728
162.318 -299.7 25.788
-177.56 -301.842 31.391
-140.326 -295.776 54.1279
138.658 -218.38 -89.8909
1.27934 -207.119 -82.1651
-139.954 -216.254 -88.7069
201.351 -253.22 -35.7271
233.163 -264.478 58.7946
148.156 -152.322 -143.86
163.111 -211.468 -109.833
292.482 -102.508 -52.2157
231.756 -169.184 -91.6768
251.836 -60.7084 -124.588
274.101 -223.352 105.96
316.7 15.1758 -31.3528
304.145 -108.896 18.755
283.102 -143.503 156.185
274.602 -71.6715 184.085
67.8414 -137.904 434.518
163.873 -50.946 377.52
51.8851 5.39821 424.302
-193.715 -313.46 287.119
-143.39 -296.684 392.019
-224.84 -219.335 325.498
-178.948 -211.063 -111.33
-209.259 -257.55 -37.4463
-241.331 -171.056 -95.3571
200.141 16.5597 -168.707
99.4337 -51.33 -211.415
70.7532 122.533 -257.391
272.413 53.7466 71.6111
330.089 109.434 -59.5106
297.263 155.389 -15.3006
-195.991 248.581 105.786
-175.548 257.931 148.869
-157.352 281.024 133.161
-186.609 190.237 180.586
-186.668 232.107 162.877
-212.576 199.362 127.521
-126.992 269.022 185.095
-159.161 253.109 177.3
-139.831 237.329 205.781
-245.874 -29.9154 306.492
-243.106 8.12521 291.042
-265.018 -17.2369 265.478
-189.967 49.3303 326.126
-216.963 31.4964 312.347
-193.432 14.4358 346.877
-246.64 60.2957 220.321
-235.029 45.6583 271.089
-217.276 93.5623 238.874
-28.3835 135.272 335.866
-55.2503 119.414 342.53
-36.0193 79.2676 393.488
-105.701 199.742 264.726
-84.6178 171.549 302.94
-78.5966 208.472 269.438
-101.835 50.294 382.691
-92.5578 102.077 340.125
-136.595 78.9979 337.077
-180.454 144.32 234.474
-161.915 106.131 293.396
-140.609 185.694 247.966
-126.183 298.312 133.56
-135.558 296.251 95.98
-100.132 277.878 183.386
-112.04 291.638 161.813
-66.4019 315.383 77.7593
-92.9504 306.31 127.84
-52.7388 303.889 119.84
17.9933 136.41 335.5
-4.14008 180.795 303.055
55.4681 237.599 226.804
26.08 207.703 275.556
65.6513 206.89 265.544
-34.9602 206.789 276.622
-67.0584 236.991 231.666
116.933 290.744 88.5792
109.592 293.67 130.833
140.278 272.923 130.441
46.6098 304.925 120.581
77.9284 305.671 125.751
58.7315 315.42 78.1015
109.983 264.544 183.015
95.6199 288.136 161.385
83.8509 276.857 182.893
-45.3457 270.845 186.444
40.7952 272.03 186.317
1.08788 290.858 156.461
-117.893 302.454 40.9079
-172.5 260.869 25.6612
-41.3352 314.643 33.872
-78.5892 317.284 39.3606
-145.286 265.358 -71.6942
-100.353 298.848 -16.151
-83.3555 296.454 -72.2781
165.318 250.945 18.3025
107.734 299.583 37.6704
75.272 290.916 -68.6109
95.0681 295.578 -10.6443
146.696 253.291 -75.3275
70.6987 315.908 41.1903
35.9603 317.75 34.6832
-31.8272 219.621 -232.767
-3.24676 244.536 -206.677
24.7454 218.898 -232.433
-56.2852 281.013 -129.222
-32.0822 266.679 -169.512
-87.6047 258.936 -165.861
78.058 254.536 -162.824
23.9841 265.513 -169.108
46.9441 278.154 -128.933
-3.48633 307.682 -17.5361
23.0796 300.99 -78.942
-32.7359 302.08 -79.4738
-252.053 232.775 -61.9771
-224.928 219.464 -7.76475
-207.86 223.726 -85.9665
-247.142 236.525 -64.3555
-323.148 197.186 -61.4647
-289.452 223.501 -68.9378
-317.398 210.531 -76.3499
-48.6618 173.097 -258.88
-78.7886 204.448 -233.88
-195.379 156.435 -188.871
-125.35 181.754 -225.671
-137.014 135.437 -242.711
-108.395 227.019 -198.696
-147.828 235.287 -155.773
-344.893 92.8879 -98.5749
-331.834 111.501 -127.499
-313.115 67.2912 -131.633
-341.74 169.569 -102.038
-345.628 135.723 -120.953
-368.486 143.94 -78.2651
-271.779 108.322 -171.571
-307.514 125.201 -154.225
-281.697 135.586 -169.217
-244.515 210.855 -134.029
-267.018 180.362 -155.636
-297.653 200.125 -120.216
-244.306 193.794 24.0078
-338.282 169.295 -45.8346
-316.329 183.594 -32.1622
-257.692 170.729 34.534
-266.992 141.187 48.7057
-330.79 29.2925 -68.2555
-355.897 99.483 -69.784
-334.625 71.8844 -26.0526
-349.943 97.6836 -56.3567
-327.819 0.944008 5.8869
-362.92 127.129 -68.6748
-362.264 139.617 -63.2616
-278.394 -19.3501 226.223
-283.186 -60.9817 239.606
-267.376 81.649 123.211
-271.123 26.5661 193.637
-308.097 -64.0474 128.096
-289.289 -14.3607 160.649
-308.69 14.6579 52.78
-345.01 138.646 -32.695
-331.422 111.657 -14.3462
-316.429 123.687 3.47801
155.343 250.715 144.476
181.053 235.355 87.446
120.86 231.553 203.256
139.659 247.655 173.184
196.237 178.895 112.291
163.449 227.378 158.07
166.616 171.196 184.35
21.5623 79.6045 389.338
43.9088 121.523 339.066
128.605 76.9232 329.826
84.0789 102.358 333.587
94.7401 48.8905 371.443
73.3271 168.442 299.178
92.8829 195.192 261.466
242.73 -13.6733 263.619
226.392 7.13471 286.2
227.451 -28.5967 304.135
206.956 82.1132 239.761
220.723 44.1263 265.744
229.517 56.293 221.45
181.436 9.28141 340.742
203.751 28.6638 305.329
178.4 45.9868 318.934
127.473 176.081 247.463
151.85 100.382 289.663
166.37 129.752 239.433
-36.3339 49.5866 419.236
-7.60085 58.1747 413.416
-102.377 20.7761 401.577
-64.6108 35.5459 417.916
-7.19296 -0.0986044 444.222
-37.8227 17.511 437.132
-37.2676 -11.6567 445.781
-253.524 -76.3385 307.015
-228.489 -50.4841 334.145
-164.935 -124.641 383.422
-202.351 -78.1074 361.877
-191.448 -164.766 358.277
-199.567 -26.5904 358.829
-166.244 -6.69428 375.24
-2.4522 -254.07 442.951
-56.9976 -235.623 443.669
-51.056 -275.869 442.426
-38.1951 -81.7408 440.133
-50.2839 -164.307 442.037
-0.981028 -107.878 448.221
-120.345 -242.064 422.685
-88.6098 -219.614 434.846
-109.609 -194.041 417.055
-114.74 -21.7147 405.783
-116.986 -89.5428 411.462
-70.7396 -45.7692 435.604
-294.498 -102.493 217.723
-277.452 -95.6203 263.956
-313.076 -100.917 117.072
-309.066 -106.699 172.907
-274.906 -186.403 233.377
-300.893 -138.972 198.672
-293.595 -183.878 173.453
-311.913 -48.9875 -76.372
-323.575 -55.2944 -42.1458
-296.128 -162.727 17.5586
-315.602 -109.261 -19.991
-286.253 -152.828 -33.3807
-326.604 -66.7127 -3.98157
-325.131 -81.2684 47.1896
-221.92 -310.571 146.07
-251.497 -284.268 114.603
-223.773 -300.978 95.446
-287.832 -230.862 148.005
-273.994 -259.275 132.241
-258.362 -262.835 188.988
-263.004 -240.893 29.7229
-274.222 -252.556 87.9633
-286.736 -221.498 61.0233
-313.163 -144.775 94.8177
-306.668 -184.961 83.1535
-310.43 -192.104 124.002
-277.427 27.9021 -143.655
-289.598 -15.9682 -116.719
-210.898 84.188 -181.19
-258.811 60.568 -167.587
-216.949 -99.2738 -146.73
-236.307 -24.3572 -156.879
-188.678 -66.449 -175.057
-3.32325 142.221 -279.9
-45.6929 132.065 -276.467
-34.3479 88.2415 -257.999
-38.3044 117.889 -270.813
-5.11564 106.519 -268.629
-91.1645 127.016 -262.436
-131.308 124.995 -240.219
-121.301 -165.407 -126.407
-124.249 -107.396 -152.53
3.29398 -128.395 -118.728
-161.08 -85.4073 -176.601
-162.779 -93.7826 -169.26
-175.009 -141.053 -151.419
4.35551 55.7818 -233.781
-102.885 -23.0351 -217.497
-49.3194 33.4995 -227.804
-132.036 72.9651 -210.697
-80.9666 35.3358 -225.483
[...]
POINT_DATA 642
SCALARS Mean_Curvature double 1
LOOKUP_TABLE default
0.00989715
0.00908084
0.011403
0.00706023
0.00952046
0.00404821
-0.00579101
0.00915924
0.00227
0.00823187
0.00437299
0.00831696
-0.00235904
0.0041413
0.000180291
0.00505464
-0.00446121
0.00394865
0.00272621
-0.00815993
0.0342165
0.0110983
0.00501341
0.000391321
0.00182564
0.00976518
0.00637231
0.00480407
0.0239007
0.0244385
0.0379863
0.00506868
0.00401273
0.0014687
0.0138913
0.00973971
-0.00488989
-0.0206003
-0.00272236
0.00671439
0.0078588
0.0133445
0.0163904
0.00962059
0.0144787
0.00892952
0.00696525
0.00572856
0.00941603
0.00626773
0.00765885
0.0117837
0.00316926
0.010348
-2.91775e-05
0.0051543
0.0162698
0.0142054
0.00315813
-0.00213655
-0.00326364
0.00423014
0.00877637
0.00817355
0.00889425
0.0173348
0.0040478
0.0115912
0.00314844
0.0187041
0.0176671
0.00785595
0.0126062
0.00117284
-0.00534036
-0.00174345
0.000933268
0.00430371
0.00205955
0.00458345
0.0058972
0.00830113
0.0074773
0.00845641
0.0121271
0.0111843
0.00479974
0.00778555
0.000744389
0.0112126
0.0179317
0.00513226
0.00581803
0.00859487
0.000875008
0.00866297
0.0110307
0.00470204
0.00107658
0.00498372
0.0394544
-0.00287899
-0.0126616
-0.0616779
-0.0105922
0.000163682
0.0134183
0.00526045
0.0204751
0.00837519
0.0149704
0.035369
0.0068591
0.00525964
0.00381874
0.00673978
0.00964284
0.00729469
0.00789156
0.0117002
0.0206976
0.00856308
-0.00749487
0.0112007
0.0229902
0.0122872
0.0029832
0.00458214
-0.00472856
0.0542004
0.0783399
-0.00279386
-0.0024681
-0.0245387
-0.00208149
0.00668971
0.0059613
-0.0123525
0.0518701
0.00956174
0.00903859
0.00889588
0.0127968
0.00571207
0.0122517
0.00314523
0.00235176
0.00960316
0.0102921
0.00941735
0.00690935
0.0102446
0.0117917
-0.00667898
0.00700979
0.00805966
-0.00214756
-0.00643743
-0.00378678
-0.00330066
-0.00499356
0.0103606
0.00763487
0.0130695
0.0139759
-0.00141856
0.0148003
-0.000674364
0.0141847
0.0129634
0.00887291
0.00665322
0.00728102
0.00734818
0.00716031
0.00852888
0.00847721
0.00294537
0.00695943
0.00389137
0.00185205
0.000194846
0.0112577
0.00810107
0.0102278
0.01078
0.00275231
-0.0023556
0.00284483
0.000207809
0.000374741
0.00338004
0.0162293
0.00720312
0.0107924
0.0181051
0.0116284
0.016434
0.000938454
0.00455974
0.00408378
0.00155617
0.00759859
0.00918746
0.00489487
0.00257238
0.00283299
0.0147988
0.0126356
0.00295519
0.0184554
0.0139604
0.0129231
0.0160683
0.0145904
-0.000660398
0.00111038
0.00516481
0.00773284
0.00171171
0.00381324
0.0157026
0.00567557
0.00360393
0.00916711
0.000455848
0.00997426
0.00566318
0.0040812
0.00087938
0.0147814
0.0094396
0.00940873
0.00792929
0.0108728
0.00405744
0.00588473
0.0090633
0.00751892
0.00661821
0.00392896
-0.000468362
0.00726433
0.00676579
0.00374701
-0.00828043
-0.0162905
0.040478
0.00955078
0.0374868
0.0321909
0.0054254
0.00939612
0.00489827
0.00587466
0.0278159
0.00808893
0.00759828
0.00853086
0.00634405
0.010438
0.0127292
0.0281603
0.0479509
0.0109368
0.0160705
0.0145384
0.0120342
0.0104951
0.0128891
0.000344292
0.00807459
0.00962861
0.0001328
-0.00463691
0.00705887
0.0282636
-0.00355336
0.0145388
0.00494672
0.044886
0.0272052
0.00482125
0.00533121
0.00319103
0.00414333
0.00167992
2.58231e-06
-0.00303044
0.0233146
0.00613743
0.00568036
0.0124682
0.011245
0.00756804
0.0135924
-0.00309009
0.0115008
-0.00320689
0.00958181
0.000844069
0.00353453
-0.00179081
0.00215953
0.00839517
0.00653906
0.00616676
0.00772545
0.00932232
0.00528231
0.00940175
0.00472932
0.00749519
0.00840588
0.00683431
0.00411007
0.00160591
0.00120408
0.0145417
0.00915529
0.00637106
0.0106813
0.0132153
0.0159139
0.0150861
0.00913762
0.00615517
0.0020367
0.00676073
-0.00240147
0.0091183
0.00664471
0.000537653
0.00644562
0.00779747
-0.0023386
0.00283734
0.00927224
0.0083896
0.00843274
-0.0040794
0.00102971
0.000157003
0.00887994
0.0054156
0.00754537
0.00189208
0.0112234
0.00322008
0.00916636
-0.000470218
0.00856878
0.00917135
0.000395478
0.0117265
0.00164097
0.00675738
0.00963537
0.00732157
0.0102645
0.00610014
0.0077604
0.0103218
0.00479035
0.00612852
0.00882668
0.00639088
0.00372737
0.00764915
0.0167412
0.00174424
0.00423322
0.000607844
0.00808338
0.00201718
0.00332289
0.00700778
0.0185475
0.0302399
0.00522366
0.00441594
0.00150944
0.0461916
0.00494926
0.00214214
-0.0026561
-0.00748054
0.050432
-0.024298
0.052374
-0.00599051
0.0268372
-0.0143134
-0.00631252
0.00543958
0.0125947
0.0081874
0.0060634
0.00615976
0.00729311
0.047365
0.00577539
-0.00378329
-0.00544299
0.0103821
0.034899
0.0244607
0.00432975
0.0233907
-0.00470193
0.00917112
0.0166389
0.00806254
0.0166817
0.0172936
0.011499
0.046779
0.0140045
0.0171785
0.0157825
0.0108561
0.0114382
0.00577915
0.00924843
0.00493082
0.00384096
0.00878076
0.00589208
0.0117255
0.00678907
0.0101882
0.00584592
0.00578372
0.0025859
0.00753257
0.000950437
-0.000587568
0.00393842
0.00409981
0.00441185
0.0125708
0.0122769
0.0110189
0.00922798
0.00984172
0.00650906
0.00695459
0.0171108
0.00860173
0.00590995
0.00582544
0.00495186
0.0140582
0.0194771
0.0235299
0.00623167
0.00213738
0.0141591
0.0022925
0.0161087
0.0127003
0.0127348
0.0114048
0.00687286
0.0127113
0.00824204
0.0232877
0.015366
0.00416339
-0.00213397
0.0121294
-0.00127104
0.0128263
0.0119607
0.024618
0.026699
0.0297618
-0.00602417
-0.0114116
0.00757585
-0.00319879
0.050948
0.0652246
-0.023331
-0.00946992
0.0218344
0.0498392
-0.00440169
-0.047879
0.0363364
-0.0171523
-0.00168643
0.0201427
-0.022054
0.02214
0.0029726
0.008452
-0.0160514
-0.00679251
0.00684078
0.00509027
-0.00892221
0.00517046
0.00463686
0.0040838
0.00589416
0.0443445
0.0144005
0.00532807
0.00747367
0.00982922
0.00314771
0.00235674
0.0221957
0.021028
0.0562841
-0.0274184
0.0903318
0.00947079
0.0075448
0.00730059
0.00697385
0.00429583
0.00460903
-0.000345329
0.0039303
0.0091565
0.014857
0.0080635
0.00781372
0.0090612
0.00509655
0.0100491
0.0108226
0.00819874
0.00370794
0.00889365
0.00956355
0.00731401
0.011317
0.0129944
-0.00440306
0.00561899
0.00239942
0.00252747
0.0141591
0.00133319
0.00789129
-0.000706985
0.00975979
-0.00389724
0.0109032
0.00973741
-0.00370797
0.00310431
0.00431906
0.00544645
0.00949686
0.00667562
0.00992819
0.00688744
0.00364739
0.0133839
0.0146935
0.0157101
0.00782041
0.00137869
0.00320789
0.00504376
-0.000984515
0.00542867
0.00923785
0.00744722
0.0068916
0.00459755
0.010466
0.0119061
0.018338
0.00864677
0.00867075
0.00440396
0.00401796
0.00381361
0.00312752
0.0107848
0.00745134
0.0052427
0.00574511
0.0029662
0.0301269
0.0556215
-0.0180965
0.0532449
0.00443084
0.00883298
0.00484512
0.0222274
0.0582773
0.0066279
0.00626541
0.00428773
0.00477062
0.00730088
0.0262368
0.00643955
0.0103425
0.00250985
0.00396966
0.00173252
0.00641705
0.00870491
-0.0043889
0.0227862
0.0337462
-0.0299032
0.0314031
0.0321632
-0.0122644
0.0691761
0.000317317
0.00318286
0.00575998
-0.00218456
-0.00603659
0.00438771
0.00226655
-0.000735029
0.00244729
0.00210394
0.0255468
0.00619347
0.0485588
0.0205266
-0.00763102
0.0046307
-0.00440804
0.00209221
0.011172
0.00794099
0.00528157
0.0132584
0.00530842
SCALARS CoVolArea double 1
LOOKUP_TABLE default
2509.72
2501.15
1785.72
1878.94
1572.31
1690.63
2623.39
1902.49
2194.62
1473.26
2263.14
1378.16
6149.88
2399.81
1837.19
1750.52
3130.85
3427.25
3701.67
2514.19
1052.33
3339.99
2388.39
5825.24
2852.73
1887.86
2594.58
2952
1547.39
1614.41
820.051
1607
2675.33
3011.85
2171.46
2384.7
4856.85
655.474
432.804
2048.94
2479.05
2468.44
2304.21
2168.9
1049.41
1578.86
2640.44
1984.08
2051.04
3083.57
1973.69
1923.8
1651.5
1967.07
3618.11
1510.47
1591.16
1027.15
2726.91
3698.23
3598.14
2775.73
2262.86
2627.23
2200.95
1906.05
2168.59
2026.17
3694.11
899.205
1925.4
1714.64
1923.45
2535.06
863.835
5080.62
2597.33
2321.16
2522.66
2219.98
2915.55
1672.15
2252.85
1404.36
1695.87
1039.95
2774.47
2983.96
3576.23
3370.9
1438.78
2287.57
2465.44
2169.11
2774.3
2294.08
1677.35
2135.19
4773.7
2930.74
725.595
2538.68
1529.22
1465.72
12514
4259.67
1938.08
1548.65
1514.42
1478.03
1891.44
856.139
2106.35
2628.03
2306.05
2597
2439.29
2100.71
2368.39
2163.05
1281.66
1533.44
1358.72
2295.04
1862.93
1428.97
1534.46
2405.73
5647.87
1177.28
967.302
6428.82
2848.31
8356.32
3204.96
1749.39
1996.42
906.043
838.26
1892.58
2048.97
2633.42
1630.35
2216.65
2172.92
2708.42
2870.98
3415.47
2312.98
2061.99
2652.98
2375.14
2442.05
546.396
1877.31
2219.81
5027.87
1865.45
2898.88
5385.5
1122.19
1747.81
2795.53
1327.55
1450.67
3279.42
1502.27
3774.24
1141.17
1131.3
1876.36
1622.55
1652.74
1719.82
2330.03
1544.57
1603.68
3776.07
1919.56
3543.72
2508.39
2370.17
1656.9
2170.17
2106.17
1787.29
2399.28
2945.77
3218.6
3812.08
3855.01
3442.57
1292.79
2458.02
1698.09
969.284
1942.92
1321.59
3031.25
2431.4
2390.58
2406.05
2308.51
1760.75
2433.08
2802.77
2628.57
1374.62
1691.18
2764.85
1221.77
1668.35
1098.27
970.863
1430.64
3418.46
2979.87
3102.44
3372.35
3910.25
2747.94
1942.91
3886.65
3463.57
3211.45
3545.5
2972.48
3640.13
3537.7
3978.09
1731.19
2604.07
2206.61
2275.25
2143.89
2751.11
2377.3
2538.41
2624.77
2328.41
2912.77
3455.18
3298.13
3201.11
2069.17
3989.97
3993.44
1744.9
769.869
592.791
1371.89
2288.38
2380.48
4006.41
3222.38
2167.21
2775.73
3862.58
1877.27
1427.74
2288.07
1998.74
1342.65
904.432
1710.13
1142.5
2336.97
3510.01
3109
2446.78
3585.83
982.78
1984.29
2966.63
5256.31
2532.48
1275.48
2626.26
1231.07
2708.03
369.935
634.446
2528.27
1893.4
5699.87
3862.11
3691.31
5037.05
5487.11
1043.69
2848.43
2942.69
1385.41
2278.43
1860.38
1102.19
4925.36
2183.19
4129.71
1722.05
2430.21
3010.42
2992.17
2621.17
2137.22
2192.4
1660.2
1423.21
1419.68
3196.03
1497.64
2888.36
1503.19
1444.4
2153.58
3276.97
3378.98
3548.95
1111.02
1175.97
2143.63
1316.39
1080.24
998.128
1636.52
2022.82
1945.05
4296.94
2662.79
3113.25
1728.04
2215.73
2369.32
2410.84
1887.19
2843.81
3219.15
3052.11
1397.34
1917.21
3575.53
3099.87
4548.24
3114.1
1883.77
2017.27
2798.2
1980.67
2756.65
2196.31
2678.89
2739.16
2431.3
3132.94
2350.52
2442.47
2777.92
2938.26
2216.79
1816.09
1938.56
2215.63
1791.9
2439.4
2072.89
1761.88
2408.54
2678.82
2550.54
2130.73
2735.34
2874.72
3679.54
2888.48
2683.48
3366.34
2907.29
1786.58
1340.34
1990.14
855.354
981.814
911.621
2192.2
3708.48
7970.08
9911.93
1180.35
1515
432.934
4137.78
5509.33
1815.28
5434.41
3659.72
3873.21
2359.39
2222.99
3438.8
3060.14
1720.17
3292.62
3704.4
2936.27
1876.81
1234.38
692.051
754.667
1864.71
2720.55
1932.08
1231.13
1642.52
2088.98
1234.07
1361.81
798.15
1409.41
1748.33
3018.53
2259.49
3235.55
2125.39
2414.4
2508.83
2837.64
2378.44
2161.17
1581.42
2123.39
2155.91
1847.72
2535.68
2003.77
2556.88
2798.26
3290.33
2388.35
2443.42
2740.46
2013.66
2071.01
1808.02
2421.8
2247.3
2455.74
1485.48
1515.84
1809.95
3063.1
2624.28
2831.75
2343.51
1991.26
1606.59
1754.5
2534.96
1847.08
2813.78
1936.25
2127.06
2184.71
2234.72
2465.29
2266.76
2215.95
1922.95
2275.81
2779.59
2895.16
1823.74
2889.8
1792.15
1684.09
1678.05
1435.23
1385.69
1826.18
879.173
1966.69
9161.71
1816.38
521.665
631.158
1492.93
1636.33
831.093
1999.47
1157.36
529.374
2500.62
9596.45
3636.73
6680.61
3714.92
3002.97
4098.76
903.94
1269.43
4221.73
3289.34
12312.4
8799.28
8620.24
2175.3
2115.4
912.655
1478.51
1916.99
1917.23
1893.22
3246.06
1171.89
1326.69
550.457
744.09
557.513
452.791
2514.38
2277.01
2535.72
2121.59
2093.93
2196.5
2684.37
2270.84
2091.17
1588.02
1894.72
2109
1846.57
2357.86
1695.32
1660.22
1969.42
2489.31
2211.38
2579.93
2012.08
2002.01
1769.61
2732.27
1728.69
2108.46
2286.05
1736.64
3170.01
2052.89
3173.69
2523.36
3410.97
2349.21
2155.22
3589.68
1885.87
2782.66
2457.6
1556.69
1988.49
1382.57
2240.76
3742.84
1191.54
1686.95
1059.17
1558.16
2357.37
4214.61
3103.28
3497.03
2708.79
2390.86
2265.18
2561.86
2944.92
2125.55
1850.64
1716.26
2389.45
2625.88
2682.25
2875.72
2502.23
2521.42
2328.74
2933.42
2745.86
3122.13
1652.81
414.271
871.172
557.51
999.634
2169.74
2145.38
2224.78
1498.42
795.976
2621.24
2129.05
2427.59
2252.09
2328.77
1431.31
2304.54
1835.94
2442.2
3373.69
3253.87
2574.75
3086.68
6228.55
1720.15
3691.17
782.954
1763.41
1247.53
1834.43
702.663
777.384
2268.47
5041.16
4819.71
6221.34
2686.93
4392.28
4865.78
3859.03
5252.89
1105.69
643.572
364.213
1029.18
2196.82
2432.16
4917.46
2854.41
1552.75
955.332
3044.08
1313
3232.69
SCALARS SignedDistance double 1
LOOKUP_TABLE default
76.6172
88.823
79.3254
75.1682
68.7401
85.6456
195.569
59.8189
73.6832
82.205
72.0068
77.5134
86.6403
80.8656
86.0257
86.1379
76.6455
72.6432
69.5369
90.8842
73.5899
82.2572
81.6822
87.7203
75.5073
75.0015
74.3067
72.0573
104.188
97.2055
77.7717
99.605
76.6734
78.1051
60.6273
58.8951
127.182
95.7515
94.8846
84.3199
77.2841
83.6015
90.7241
88.5968
72.0935
76.437
80.8273
81.6461
80.804
82.448
80.3482
77.8242
75.0294
79.6722
84.2333
74.6708
77.4514
75.522
75.4881
82.6496
89.108
75.2134
61.2963
67.3682
61.8378
77.3008
76.1389
65.0777
72.7011
75.2109
57.1852
68.3451
86.4708
82.1109
81.4039
90.6032
81.9409
92.1619
96.3165
83.0714
83.478
84.3036
82.355
79.3066
74.369
75.8679
74.436
74.8088
71.8687
72.0936
72.4982
78.7891
75.8144
71.1756
81.8778
68.0301
70.9494
73.0392
81.6119
74.5285
84.2735
83.2213
96.8029
112.722
161.685
79.6588
67.204
79.6345
76.6106
71.62
59.184
80.228
72.7065
70.5965
71.6126
77.1574
76.2672
80.7354
56.6869
68.8616
75.4578
86.335
100.16
53.8251
70.4541
102.194
89.9181
73.3097
96.9826
98.5157
100.136
108.32
98.0607
194.477
108.651
74.5134
73.8468
94.0583
94.7336
72.8798
72.9879
75.0882
75.5324
87.9057
79.7575
84.4726
85.2741
73.5311
76.8005
78.2093
66.5246
62.9931
70.3988
96.9517
76.1204
71.3361
81.0065
129.32
78.9861
98.9486
83.323
88.6945
81.7613
74.5758
69.8377
90.9865
82.1851
93.0977
76.4343
77.305
84.5979
77.6259
79.2076
79.3749
79.078
78.3742
77.3349
83.5924
80.6799
84.3004
92.0503
92.6187
82.1772
78.8256
78.891
78.3432
81.6898
88.1847
85.241
85.5258
86.1511
82.2735
69.254
70.408
79.3232
74.7773
78.5234
74.5967
76.2325
92.0562
80.9423
86.788
79.8024
80.3605
79.7033
85.7616
74.2356
70.7416
74.6786
76.7533
73.9187
77.2967
78.1768
73.8331
78.1953
81.995
84.7589
77.9532
70.7905
80.6399
80.4897
72.3787
72.9747
70.5947
68.0368
90.41
73.5932
69.1176
72.963
81.0053
70.4113
80.1434
58.9001
61.3686
58.5184
66.3993
64.3716
63.4845
65.1274
65.6147
67.1266
76.0878
69.1107
70.2421
92.6638
84.1773
83.9695
96.53
73.0136
78.6124
73.0752
62.8711
58.8976
78.3931
61.6552
79.5848
61.0815
66.5822
67.4627
64.5171
69.0142
53.0613
65.4343
79.3585
76.4069
68.2019
73.9628
85.5519
72.905
60.0744
90.2096
75.8491
79.5751
91.9143
92.6158
75.4407
79.9514
83.347
80.6177
86.7164
83.0184
82.1373
82.142
81.3496
83.3855
83.0423
83.8205
85.885
89.1711
87.1524
88.5214
91.7053
79.7429
95.2578
87.2986
81.3882
91.5078
88.2
91.4338
83.4303
92.3341
85.2953
88.7075
83.8737
80.3989
81.3344
83.0698
81.7031
80.4783
86.3158
82.4072
86.8504
79.8657
80.6975
81.5406
84.6295
87.4699
88.7054
77.4417
79.1078
80.1901
76.7186
73.6751
73.8735
72.5157
76.1035
76.416
76.962
74.6206
77.7309
75.2605
78.1716
69.6662
70.4331
69.0749
79.5004
72.3187
79.4555
74.8407
75.6191
76.2246
80.4289
81.5437
77.665
79.419
77.3286
80.6229
81.7756
75.2078
74.6269
79.6187
69.4222
74.5454
79.1523
74.7983
78.6979
77.7892
82.3194
69.9507
70.9583
73.6192
71.9972
70.1642
71.0675
71.8636
71.0597
72.7173
80.6955
78.5244
80.7221
73.9324
72.9081
88.5564
77.8182
75.5502
74.8066
79.9301
74.1566
82.4906
94.2223
83.6724
85.6464
81.6609
80.4528
121.263
112.179
181.846
97.5925
95.9514
99.0696
108.831
135.281
130.582
98.8402
129.787
100.252
60.5512
63.3674
77.1063
62.827
86.7034
65.5039
92.0604
91.0459
88.4245
76.3029
79.2148
75.8292
88.7563
91.4173
71.3084
69.3396
73.2568
72.0398
67.3409
76.1199
82.8554
63.3896
60.7028
81.9802
57.9242
66.8806
72.5214
71.3696
74.3211
75.0382
70.4441
74.4205
73.256
68.8752
70.9916
79.6588
79.2292
83.7182
75.4928
80.0612
80.4593
77.6134
78.0884
76.2214
62.3491
60.1315
68.9674
63.4181
59.3731
57.8627
77.5972
71.9446
76.9233
72.4504
71.9955
70.4206
88.2274
94.0576
76.626
78.6542
101.271
93.2342
98.191
61.7967
53.3378
70.1488
52.448
56.0325
53.9465
66.5553
96.4453
91.6828
75.3381
102.697
97.3954
107.376
69.9995
83.2924
82.2257
86.7379
89.9008
88.8048
97.082
84.6151
111.163
101.124
98.0977
96.1621
97.3182
94.1094
97.6018
100.175
97.8185
99.0225
96.7069
123.938
127.069
186.284
150.851
97.1744
116.76
94.3245
96.9188
130.633
105.954
185.828
143.93
128.596
76.7774
75.2696
95.2969
85.7629
75.2443
73.7327
72.5487
103.698
97.6634
90.0345
94.1681
95.9423
93.476
96.1845
71.8602
74.1349
74.5004
75.1557
76.72
79.7105
78.6304
81.2159
74.3319
85.7622
76.8749
73.429
73.2509
77.6674
73.5216
72.5169
75.3756
79.5242
76.7917
79.3432
79.834
85.735
76.7156
84.6376
84.4249
84.4983
83.1721
80.2684
88.5537
84.5276
87.0795
83.5828
85.9466
83.52
74.7881
77.1355
77.7985
73.4919
83.6764
78.2175
79.4175
77.9392
76.8517
78.0849
78.4703
74.6078
75.6757
79.624
82.5921
80.9938
81.8486
82.2675
70.3809
65.4783
67.0674
70.0036
71.8879
59.611
74.7096
68.9489
56.9377
59.2153
73.9839
74.428
76.4431
80.0808
72.7932
65.4088
70.1337
68.589
106.176
97.2921
99.3122
96.3955
98.5873
79.347
70.9972
73.469
92.8074
97.8906
72.6119
75.1578
74.7035
74.2856
72.6796
93.2392
72.8189
80.7647
74.5859
77.2712
80.1325
74.8731
91.7245
100.132
145.491
140.818
96.5607
98.484
83.1754
84.0886
80.1264
83.3206
93.1051
95.6739
129.408
92.6783
86.7242
89.8865
88.3998
87.6679
88.346
82.8658
82.0586
84.3418
82.223
89.7929
95.2065
93.9879
94.1263
83.897
79.5171
89.3426
88.0989
92.3326
