# vtk DataFile Version 4.2
vtk output
ASCII
DATASET POLYDATA
POINTS 642 double
-232.802 345.967 91.6695
225.214 336.588 85.0825
-238.743 -407.83 112.589
229.265 -402.176 115.376
-2.88769 -316.301 523.394
-3.55769 162.56 461.817
0.520354 -247.487 -199.723
-1.49414 229.172 -323.062
382.782 4.93324 -142.094
340.588 -44.2795 322.829
-396.347 6.15983 -145.957
-356.694 -45.3971 326.562
-314.702 180.692 205.02
-204.927 78.8066 441.485
-133.726 317.245 286.002
125.28 314.228 284.131
-0.535617 406.167 85.2586
142.056 337.574 -149.56
-144.725 342.735 -152.226
-246.603 123.154 -278.169
-415.667 221.155 -68.1408
-424.766 -30.8871 73.4699
199.997 75.5232 434.733
306.116 167.781 203.511
-211.442 -212.238 472.338
-1.64509 -39.6876 543.279
-352.232 -252.249 -33.852
-351.479 -266.044 239.581
-3.58065 17.4494 -350.053
-221.704 -159.222 -242.1
399.457 214.332 -64.5994
241.349 123.812 -278.473
338.42 -261.6 235.363
200.6 -210.739 465.738
137.592 -437.571 356.402
-142.087 -441.207 359.996
-2.64616 -462.097 160.905
-152.694 -363.532 -105.696
146.33 -362.981 -105.445
217.963 -159.777 -236.451
342.907 -247.168 -34.9721
414.512 -29.3556 69.9404
-291.706 279.228 146.408
-236.899 274.514 253.109
-187.136 353.576 199.372
-293.457 21.9598 395.568
-280.295 124.248 343.263
-350.181 59.0636 284.937
-68.8285 251.629 380.134
-165.523 206.969 375.286
-97.9349 128.255 471.853
-85.119 386.002 198.076
-119.739 399.988 93.2384
62.6157 250.466 377.916
-0.596191 321.276 298.963
114.005 398.312 90.3771
77.581 384.864 198.354
177.161 347.407 197.301
-73.8262 399.684 -32.0687
-212.684 345.418 -39.1368
207.246 341.405 -35.5597
69.9942 397.683 -29.5953
-76.0915 303.12 -252.445
-2.19494 365.558 -166.717
71.0822 301.183 -250.965
-307.547 298.18 -113.919
-345.381 287.249 -21.6497
-121.149 184.05 -324.631
-210.151 251.389 -231.593
-436.61 116.125 -121.883
-357.873 182.984 -196.072
-346.603 78.4695 -226.098
-397.546 206.812 39.9606
-430.045 4.77114 -46.9665
-452.187 117.82 -20.8586
-390.286 88.2444 117.099
-398.422 -54.0031 215.374
222.811 267.309 250.545
280.114 271.112 134.682
90.6374 126.513 466.333
159.041 202.927 371.313
336.374 58.9116 281.646
271.728 120.439 338.269
283.436 19.1341 390.536
-101.605 30.9243 519.121
-3.4695 70.9966 522.081
-297.265 -119.97 402.596
-224.68 -42.0235 466.235
-1.52238 -195.924 535.832
-111.51 -136.979 524.624
-123.102 -265.194 520.603
-407.31 -157.72 167.217
-368.594 -157.49 288.835
-383.178 -137.929 -94.8095
-410.541 -144.643 23.6675
-308.9 -352.681 178.238
-376.089 -272.609 103.278
-308.998 -340.24 39.6646
-244.54 -3.62941 -269.087
-317.813 -86.4463 -202.461
-1.80889 112.554 -372.551
-111.479 82.6351 -347.044
-140.452 -205.518 -247.178
-123.764 -75.0485 -302.968
2.97886 -83.5359 -273.827
203.391 243.284 -226.686
116.708 181.815 -321.623
331.784 282.465 -17.0829
295.958 293.821 -111.052
337.672 72.5949 -221.746
345.192 179.246 -189.48
417.075 109.354 -115.454
297.996 -345.975 177.893
247.355 -361.764 308.738
180.683 -434.089 250.749
288.38 -112.824 396.082
285.929 -240.449 367.16
354.9 -154.441 282.611
69.9765 -394.95 458.656
185.196 -330.285 439.084
117.123 -263.56 516.659
65.7802 -488.524 261.555
116.828 -451.684 131.709
-74.9895 -397.474 461.798
-2.06132 -473.336 376.991
-121.796 -453.589 133.486
-69.8262 -491.886 261.558
-188.369 -440.206 251.587
108.011 -408.473 10.1689
189.623 -391.985 -4.74266
-193.995 -398.5 -3.35361
-113.55 -407.483 11.1798
111.068 -301.944 -171.927
0.454818 -325.325 -96.029
-115.695 -300.818 -171.904
255.219 -322.805 -79.1397
299.306 -333.619 37.2541
130.581 -205.977 -246.995
185.487 -276.365 -186.605
374.681 -135.72 -91.9024
297.332 -211.328 -150.739
311.986 -86.0461 -197.642
361.75 -267.205 102.416
416.196 -0.132823 -41.7752
401.773 -139.607 16.0649
389.289 -156.046 168.979
381.279 -54.7701 209.892
104.513 -136.524 522.403
219.33 -42.3673 461.328
94.318 29.5699 513.141
-258.881 -366.798 312.758
-193.199 -333.801 443.388
-298.662 -242.795 374.259
-188.471 -279.895 -191.403
-260.854 -326.036 -80.4308
-303.965 -213.287 -154.116
241.648 -0.893201 -260.859
115.416 -79.2438 -301.469
105.726 85.9614 -344.228
375.586 80.2639 115.168
430.055 111.405 -20.3466
379.536 202.901 39.8313
-266.181 316.177 118.566
-239.88 323.46 179.975
-208.96 356.697 150.803
-276.906 236.194 233.159
-263.547 282.712 208.014
-307.012 240.702 169.428
-162.092 341.474 243.075
-215.566 317.024 229.046
-187.888 301.455 271.681
-327.934 -11.0494 363.576
-326.89 41.4806 342.746
-356.907 7.82781 307.603
-249.417 101.914 394.524
-289.532 74.4925 372.843
-253.926 51.5541 420.472
-337.603 110.077 254.696
-318.085 93.5989 317.017
-300.596 149.433 282.943
-35.182 206.708 419.541
-81.9352 188.578 426.118
-51.5578 147.467 471.824
-148.054 266.295 333.102
-117.539 234.263 379.998
-100.559 284.476 336.744
-149.119 104.787 460.357
-133.895 165.285 422.106
-186.435 137.968 413.199
-254.266 200.545 294.359
-224.402 166.678 360.666
-201.336 243.031 314.525
-159.188 382.629 151.024
-176.102 379.344 96.3135
-113.046 359.009 242.33
-135.578 375.344 201.275
-70.4046 412.255 87.8174
-104.395 398.601 148.011
-48.6378 399.76 142.88
29.0517 206.795 418.757
-2.56856 252.189 382.185
68.4399 321.723 294.385
34.1801 288.102 343.418
93.5676 282.627 333.878
-38.9351 287.81 344.329
-75.058 321.519 296.663
165.408 374.358 92.2743
150.199 377.584 148.409
198.493 349.384 148.677
44.655 401.688 143.253
96.3106 396.185 145.795
66.5562 411.021 88.0819
152.849 336.683 240.76
127.481 371.146 200.223
103.962 356.424 241.505
-44.4971 358.361 245.809
41.5834 360.35 247.257
-0.0850497 383.222 197.461
-156.249 385.861 32.9449
-224.89 345.681 22.3642
-42.5631 412.324 28.4726
-97.239 406.182 31.9187
-180.165 347.154 -95.9714
-131.683 383.448 -32.9273
-107.538 377.981 -94.9297
219.796 340.797 18.3996
150.887 382.929 31.5668
102.83 373.739 -92.9305
129.691 380.367 -29.4608
178.307 340.178 -94.5693
94.2233 404.369 33.7898
39.3752 412.855 29.3419
-39.0106 269.964 -292.226
-1.67118 306.828 -257.601
35.3111 269.296 -291.666
-71.8744 359.486 -162.982
-38.927 338.494 -212.028
-110.543 327.904 -205.743
104.726 324.498 -203.42
34.7344 337.671 -211.689
66.8131 356.96 -162.309
-2.66028 403.205 -33.7409
33.5842 386.418 -101.893
-38.9575 388.057 -102.156
-293.134 321.601 -36.5826
-288.264 303.19 19.9368
-233.962 311.255 -128.524
-274.392 327.134 -79.7783
-383.554 261.636 -41.9891
-333.606 303.002 -62.3239
-366.087 266.948 -92.0618
-61.7203 209.742 -328.336
-99.7782 249.224 -294.867
-231.338 187.523 -259.295
-160.359 221.554 -286.813
-178.265 152.605 -312.143
-137.699 281.529 -250.277
-180.683 301.672 -196.947
-418.923 70.4085 -137.866
-397.057 98.646 -180.676
-377.768 45.4055 -189.571
-392.345 205.343 -134.537
-404.001 148.603 -164.06
-433.546 164.86 -95.6874
-309.799 103.96 -253.875
-360.929 128.705 -220.171
-316.998 154.691 -241.612
-270.64 278.1 -178.982
-298.2 222.441 -215.295
-336.592 247.957 -160.458
-318.562 272.622 54.3626
-411.366 218.72 -13.2941
-378.076 248.59 9.49883
-343.161 233.762 81.9271
-355.799 193.976 103.031
-419.086 5.59184 -95.9968
-443.364 73.5157 -83.0333
-435.724 69.1134 9.69639
-448.003 77.4479 -35.7474
-428.858 -6.2182 11.5272
-458.858 119.834 -64.8044
-447.101 162.051 -42.932
-377.751 6.08289 255.082
-380.97 -48.2204 273.685
-360.883 125.463 161.272
-369.537 63.0937 221.647
-411.699 -49.4766 147.961
-393.257 9.87973 184.372
-410.451 32.6969 88.8796
-433.057 161.67 11.9836
-431.598 115.729 34.5554
-407.914 155.209 65.3305
227.463 315.951 176.637
258.386 306.345 109.497
177.264 295.96 268.756
203.789 310.872 225.46
293.396 227.791 158.395
247.992 277.256 203.036
260.943 223.449 231.138
43.9474 146.61 468.98
75.5143 187.979 422.624
180.892 135.522 407.189
128.381 163.947 416.663
143.756 102.596 452.663
111.266 231.653 376.51
140.214 262.292 330.293
341.164 8.8114 304.52
314.756 39.7317 338.101
315.055 -10.7445 359.938
292.203 141.355 282.096
307.38 91.4753 312.218
325.566 106.14 253.756
245.743 47.842 415.007
279.885 71.6463 367.156
241.418 98.8053 388.641
192.651 236.284 312.356
217.255 162.213 356.742
244.695 191.363 295.038
-52.4211 102.573 503.365
-3.70607 117.806 497.042
-151.404 56.6453 484.778
-101.663 80.2845 500.161
-3.3852 20.686 538.073
-54.1071 51.1014 526.552
-53.9659 -0.608402 538.555
-333.986 -76.2999 365.394
-301.856 -42.2902 401.602
-219.715 -127.616 464.935
-265.189 -79.8453 437.259
-257.396 -168.422 434.58
-262.565 -8.96298 434.05
-218.656 20.8222 457.668
-1.83148 -259.874 533.14
-65.4944 -238.465 533.92
-61.8223 -293.978 524.846
-54.8199 -82.1096 538.803
-61.9748 -165.102 534.593
-0.884233 -110.216 543.055
-170.019 -241.281 503.357
-120.838 -213.788 525.02
-159.852 -186.526 501.864
-162.717 -5.98632 494.953
-164.923 -87.218 499.754
-105.585 -40.9442 525.738
-391.796 -102.095 252.029
-367.381 -99.2307 308.215
-416.177 -102.392 129.222
-410.55 -104.736 193.904
-362.22 -213.969 267.26
-392.921 -156.111 227.838
-385.58 -212.388 200.734
-390.07 -71.1086 -120.154
-411.872 -74.219 -68.5508
-385.676 -199.572 -5.44185
-403.178 -140.925 -41.3155
-368.68 -194.494 -67.3069
-423.664 -82.3533 -12.7955
-425.249 -92.6317 50.3495
-276.882 -384.37 145.639
-315.715 -351.278 106.638
-277.521 -377.302 76.0411
-370.202 -272.469 166.013
-348.265 -313.981 137.554
-333.939 -312.4 209.657
-333.981 -298.543 2.04928
-347.005 -309.693 71.9446
-368.159 -266.406 38.7445
-414.639 -159.394 96.2678
-398.801 -215.197 68.9604
-399.879 -219.103 132.975
-335.358 3.97094 -216.072
-357.732 -39.8414 -176.997
-251.415 73.4944 -278.573
-303.048 43.0941 -249.891
-270.445 -126.91 -224.871
-286.558 -45.2831 -236.649
-233.526 -89.2905 -259.686
-1.68416 168.668 -352.019
-60.5054 147.222 -355.463
-51.351 50.861 -354.98
-57.3742 95.3781 -365.31
-2.32235 69.5468 -365.102
-122.815 124.152 -347.789
-175.657 105.984 -324.904
-104.59 -219.033 -231.713
-100.616 -160.396 -260.707
1.21872 -169.896 -237.05
-172.48 -125.62 -277.186
-137.122 -145.433 -274.03
-173.329 -188.518 -254.276
-2.26284 -21.7842 -327.463
-84.9215 -73.4772 -296.923
-54.6288 -17.4648 -330.161
-172.597 47.7824 -305.493
[...]
POINT_DATA 642
SCALARS Mean_Curvature double 1
LOOKUP_TABLE default
0.00531375
0.00328687
0.00623936
0.0054502
0.0102341
0.00471149
-0.00999267
0.00674333
0.00257597
0.00576026
0.00419471
0.00585907
-0.00195077
0.00376673
0.00412469
0.00455223
-0.00164712
0.0036536
0.00396851
0.00290533
0.0113598
0.00533187
0.00406527
-0.000231466
0.0040114
0.00426256
0.00427778
0.00335075
0.00888683
0.00292055
0.0118112
0.00686202
0.00363218
0.00361052
0.00455534
0.00468358
-0.000332281
0.0129137
0.0131386
0.00403287
0.00453673
0.007189
0.00483338
0.00518346
0.00705477
0.00547012
0.00442534
0.00467144
0.00594203
0.00373537
0.00536636
0.00744642
0.00367955
0.00566384
0.000645442
0.00528448
0.00789739
0.00702707
0.00405261
-0.00106484
-0.000670244
0.0034913
0.00565103
0.00574417
0.00570448
0.00638012
0.00621997
0.00447164
0.00155781
0.012095
0.0061153
0.00461888
0.00799264
0.00264667
0.0118249
-0.00138279
0.00233617
0.00466081
0.00403077
0.00428725
0.00369712
0.00531487
0.0046871
0.00544579
0.00695708
0.00667742
0.00229525
0.00480214
0.000937058
0.00358179
0.00952391
0.00370446
0.00382287
0.0052465
0.0016324
0.00430885
0.00644426
0.00420173
0.00100197
0.00405792
0.0139503
0.00550829
0.00788197
0.0102364
-0.00721953
-0.00068349
0.00418629
0.00580558
0.00542504
0.00748894
0.00666769
0.00801648
0.00431339
0.00399843
0.002056
0.00400845
0.00532584
0.00420298
0.00571241
0.0061598
0.00955657
0.00648381
0.00653802
0.00650489
0.00583405
0.00611974
0.00733701
0.00387753
-7.34507e-05
0.00311904
0.00431402
-0.00118099
0.000275285
-0.0136755
-0.000551284
0.00569246
0.00419221
0.0111053
0.00517018
0.00540704
0.00527976
0.00493087
0.00643993
0.00230709
0.00526467
0.00422818
0.00224673
0.00414446
0.00604963
0.00601377
0.00451049
0.00566378
0.00452053
0.00731384
0.00527124
0.0052072
0.000251463
0.0110513
0.00540784
-0.00231209
0.00763289
0.00758568
0.00482958
0.00642471
0.00676468
0.00392753
0.00704463
0.00424749
0.00709732
0.00710902
0.0049444
0.004882
0.00520043
0.00500096
0.00486711
0.00544218
0.00537983
0.00304555
0.00494454
0.0028122
0.00179635
0.00238374
0.00602308
0.00402833
0.00526067
0.00475767
0.00342406
0.00103055
0.00242569
0.000563591
0.00209607
0.00275898
0.00727254
0.00446844
0.00731492
0.00753632
0.00892789
0.00774512
0.0016503
0.00260676
0.00333254
0.00313627
0.00472234
0.00430213
0.00386007
0.00296155
0.00300973
0.00687937
0.00618213
0.00443082
0.0062957
0.00852153
0.0069809
0.0073599
0.0069616
0.00210842
0.00498527
0.00208985
0.00454305
0.000884265
0.00498962
0.00598364
0.00202663
0.00269565
0.00506527
0.00111786
0.00540146
0.00410247
0.00324469
-0.000909937
0.00611867
0.00626053
0.00577741
0.00553071
0.00621169
0.00396892
0.00488942
0.005599
0.00506577
0.00538633
0.00392063
0.00263505
0.00452719
0.00478343
0.00861302
-0.00321735
-0.00240812
0.0108572
0.0119006
0.0136769
0.00721803
0.00503999
0.00580812
-0.00062656
0.00492176
0.00512622
0.00525588
0.00355395
0.00417976
0.00842766
0.00540972
0.00544421
0.00845616
0.00601782
0.00808261
0.0121301
0.00753206
0.00750453
0.00661659
0.00620619
0.000204972
0.00759788
0.00645839
0.00130849
-0.00202389
0.00291486
0.00666232
0.00152517
0.00733607
0.000391807
0.019639
0.0116595
0.00426686
0.0045915
0.000243449
0.00288993
0.00201202
0.00126188
-0.00127973
0.00850228
0.00657049
0.00654984
0.00598421
0.00424433
0.00458843
0.00710937
-0.00024206
0.00673982
0.000513354
0.00548853
0.00222877
0.00272133
0.00123099
0.00280064
0.00507017
0.00387385
0.00491469
0.00519415
0.00576716
0.00370745
0.00547822
0.00396552
0.00512504
0.00529333
0.00476182
0.00274189
0.00256835
0.00158865
0.0073268
0.00641297
0.00435078
0.00649652
0.00718231
0.00753022
0.00739035
0.00592215
0.00490099
0.000549229
0.00475023
0.00150381
0.00556479
0.0045748
0.0035802
0.00519703
0.00656887
0.00343481
0.0018847
0.00395041
0.0107386
0.00743407
-7.22823e-05
0.00292557
0.00238541
0.0041669
0.00528481
0.00492783
0.00181083
0.0081772
0.00300341
0.00404792
0.00342803
0.00373182
0.0039772
0.0017089
0.00620422
0.00321756
0.00555346
0.00504136
0.00465628
0.0065046
0.00549719
0.00522049
0.00599174
0.00356955
0.00418749
0.00556858
0.00460151
0.00498826
0.0056544
0.00711006
0.00372442
0.00192513
0.00336872
0.00461901
0.00335584
0.00176928
0.00369156
0.00454391
0.00547517
0.00415507
0.0112746
0.0070711
0.0114049
0.0110586
0.000504548
0.000774011
-0.00332496
0.0063226
0.00719403
0.010681
0.00408904
-0.00181285
0.00714286
-0.00284211
0.00100415
0.00412987
0.00550443
0.00522269
0.00246301
0.00508521
0.00499216
0.00489869
4.74677e-05
0.000352647
0.00836113
0.00770379
0.0132198
0.0111137
0.00849063
0.00666394
0.00548287
0.00964222
0.00675998
0.00735183
0.00815038
0.00858677
0.00756634
0.00708274
0.00537576
0.00660977
0.00614704
0.00665517
0.00383357
0.00532744
0.00419577
0.00382212
0.00426541
0.00437345
0.0103614
0.0038639
0.00654051
0.00454794
0.00328578
0.0042147
0.00481072
0.00327674
0.000132826
0.00318023
0.00373241
0.00404991
0.00665721
0.0048376
0.00589227
0.00575401
0.00556496
0.00507017
0.00957442
0.00748543
0.00711116
0.00390788
0.00444517
0.0052579
0.00276111
0.00289673
0.00810617
0.00595816
0.0051615
0.00431112
0.00439797
0.00700851
0.00692839
0.00515144
0.00707012
0.00554386
0.00745333
0.00475321
0.0033843
0.00274498
0.00211872
0.00276751
0.00597173
0.00497249
0.00821227
0.00641828
0.00700002
0.0111793
0.0127211
0.00777095
0.00611912
0.00324998
-0.00134033
0.00836613
0.00944797
0.0111066
0.0080994
0.00356602
0.00900525
0.00519389
0.0108399
0.0114659
0.0045124
-0.00123545
0.0132471
-0.0136829
0.0131269
0.000794657
0.0118828
0.00955187
0.00633616
0.0117501
6.88832e-05
-0.00722814
0.00560153
0.00542024
0.00382039
0.00495571
0.00405549
0.00472561
0.00425225
0.00518194
0.00565621
0.00151182
0.00756492
0.00501337
0.0100866
0.00593397
0.0125943
0.00970663
0.00455111
0.00511679
0.00268873
0.00485732
0.00387013
0.00367396
0.00262754
0.00363023
0.00547527
0.00471292
0.00542297
0.00552219
0.00580705
0.00367747
0.00577413
0.00575747
0.00492225
0.00158515
0.00468622
0.00616267
0.00606054
0.00158063
0.00649975
0.0017627
0.00622498
0.00273804
0.00337016
0.0055187
0.00183687
0.00637716
0.00055699
0.00549445
-5.33956e-05
0.00723389
0.00742122
-0.000996863
0.00695454
0.00168003
0.00644528
0.00591432
0.00503236
0.00600426
0.00496588
0.00202591
0.00722713
0.00717384
0.00760671
0.00575407
0.00302606
0.00286972
0.00360288
0.00111123
0.00391817
0.00604818
0.00456927
0.004349
0.00400276
0.0050966
0.00813802
0.00570991
0.00551449
0.00555345
0.00217277
0.00409228
0.00437058
0.00647675
0.00447984
0.00542259
0.00493799
0.00432696
0.00469675
0.012025
0.0119411
0.0136682
0.00430139
0.00321622
0.00532846
0.00455942
0.00367686
0.00484917
0.00478069
0.00493776
0.00386398
0.0039334
0.00481473
0.00407997
0.00540649
0.00482941
0.00316241
0.00355216
0.00217874
0.00490893
0.00379862
0.00179932
0.00503154
0.00153776
0.00954278
0.00382615
0.00536665
0.0106715
0.01269
0.011643
0.00397501
0.00281421
-0.000266504
-0.00350156
0.00387064
0.00204916
0.000288478
0.00283712
9.25042e-05
0.00888969
0.0122293
0.0169606
0.00751872
0.00155336
0.0031647
-0.00120355
0.00265834
0.00622035
0.00709765
0.00467752
0.00814288
0.00561302
SCALARS CoVolArea double 1
LOOKUP_TABLE default
3751.51
3788.34
3192.01
3121.99
3102.66
2798.55
4762.62
3306.31
3339.65
2627.74
3500.44
2644.33
6103
3786.6
3433.04
3354.65
4383.2
4814.9
4892.13
4425.83
3774.8
5045.25
3725.73
5916.94
3990.32
3735.26
4065.63
4337.05
3005.47
3901.21
3399.45
3988.37
4073.79
4085.79
4286.96
4429.27
4642.33
2380.98
2404.39
3825.87
3904.95
4239.1
4126.74
3684.39
2887.61
3151.32
4104.59
3385.33
3559
4428.33
3343.86
3655.37
3421.76
3519.31
4559.96
3240.32
3472.37
2818.3
4336.26
5106.67
4796.99
4462.83
3983.32
4378.34
3907.42
4157.43
3263.21
4161.57
5515.17
3141.29
4288.93
3311.7
3492.85
4271.23
2448.01
5930.83
3773.16
3741.48
4087.39
3448.35
4271.23
3106.84
3781.67
2958.05
3539.64
2785.56
4151.93
4528.98
4648.32
4928.97
3458.83
3924.72
3900.22
3832.15
4346.46
3978.07
3586.38
3584.01
5804.81
4276.82
3120.4
3831.48
2271.82
3899.41
7916.14
5600
4164.88
2897.94
3899.61
3115.26
4109.9
3140.08
3780.02
4290.88
3856.75
4001.92
4120.75
3586.01
4194.42
4167.36
3288.78
3551.44
3874.12
4185.76
4371.47
3831.74
3560.85
3964.22
4896.61
3624.53
3579.6
5297.57
3248.01
6933.09
3447.46
3535.78
3497.83
2302.7
3330.69
3560.32
3741.36
4105.24
3508.18
4074.68
3871.74
4072.88
3897.3
4856.94
4062.6
3723.78
4393.62
4403.81
4220.51
3317.43
3774.12
3866.86
5597.79
4117.1
3886.82
5899.11
2564.89
3195.47
4307.67
3286.66
3322.73
4450.41
3177.16
4441.7
2789.48
2832.54
3524.46
3138.26
3179.54
3174.4
3817.85
3105.78
3140.73
4727.65
3367.34
4766.23
3742.71
3746.23
3143.69
3851.53
3647.51
3364.76
3559.69
4005.21
4356.01
5179.03
5173.33
4911.05
3167.43
4053.51
3343.84
2823.03
3489.33
3122.03
4384.9
3726.85
3773.81
3826.75
3725.91
3311.31
3800.91
4076.94
4075.56
3176.69
3486.33
4230.47
3076.23
3317.11
2731.66
2838.49
3177
4707.31
4435.37
4805.03
4757.93
5041.7
4262.29
3683.38
5001.18
4811.24
4791.12
4730.59
4382.97
4994.26
4770.13
4974.59
3536.85
4236.64
3910.74
4005.25
3857.71
4472.56
4001.26
4128.19
4130.25
3951.55
4510.88
5011.26
5065.45
4993.71
3696.18
4650.42
5031.74
3822.88
2814.64
2832.49
4092.99
4075.55
4077.54
5716.89
4834.21
4355.8
4462.21
5201.81
3485.74
3248.28
3767.6
4636.93
3756.59
3578.38
3295.42
3244.46
4431.86
5375.62
5420.05
4960.75
4588.15
3201.67
3416.08
4217.58
5448.49
4120.32
3272.92
4065.45
3045.07
4563.82
2535.52
3105.7
3779.54
3288.67
6367.57
5016.28
4688.08
5544.55
5903.29
3125.03
4056.42
4581.96
3301.43
4093.74
3463.58
2737.44
4842.9
3491.79
4846.13
3173.76
3764.09
4211.06
3992.61
3662.68
3601.49
3793.96
3076.12
2969.82
2936.18
4450.89
3026.85
4161.91
2997.22
2985.25
3658.89
4766.5
4845.09
4969.33
2822.43
2759.09
3751.5
2957.5
2906.03
2819.25
3574.61
3586.08
3538.54
5244.84
4115
4158.52
3367.26
3839.54
3740.99
3869.74
3724.66
4563.42
4613.48
4530.85
3028.21
3495.4
4579.89
4814.5
5865.84
4985.15
3398.61
3516.92
4317.44
3465.27
4024.19
3713.42
4222.96
4353.37
4203.42
4484.55
3931.37
3794.96
4426.8
4665.15
3819.74
3504.64
3454.01
3968.6
3526.33
3977.36
3581.17
3399.71
4034.06
4434.61
4428.1
4151.2
4148.51
4375.68
4678.95
4146.78
3975.28
4611.64
4844.22
3963.29
3836.23
3454.71
2866.44
2572.88
3369.2
3970.33
4574.45
5644.45
8154.39
3899.42
2926.46
2823.69
4178.28
4832.47
3623
6018.69
5274.37
5865.93
4052.46
4026.42
5126.06
4566.78
4086.05
4775.5
5227.6
4114.87
3438.93
3907.14
2791.12
2711.25
3702.97
4553.97
3435.38
3153.6
3227.48
4196.36
3313.82
3204.57
3365.8
3703.5
4289.42
5194.13
4782.98
5238.16
3698.48
4074.14
4085.54
4380.75
4008.54
3704.95
3453.84
3781.3
4099.32
3342.09
3922.55
3357.69
4072.26
4056.17
4396.45
3763.83
3835.37
4249.1
3991.23
4171.9
3737.83
4376.38
4156.9
4195.9
2963.14
3611.26
3661.97
4879.94
4611.1
4773.68
4268.12
4123.23
4029.23
3503.5
3660.17
3733.15
3835.35
3918.37
4120.14
4586.67
4210.17
4215.08
4194.84
4571.31
4210.02
4320.54
4379.82
3759.48
3642.32
3663.55
3668.27
3582.45
4152.95
4276.09
4273.89
3780.02
3688.65
3773.1
6672.38
3263.48
2886.62
2859.88
2720.57
3693.67
3522.04
2898.04
2801.33
2842.91
3427.08
6924.22
4091.36
5992.71
4245.47
3692.9
4756.83
2062.3
2176.91
4922.92
3937.8
9291.36
7121.05
6872.45
3700.78
3521.24
3402.86
3434.69
3438.88
3431.14
3625.46
4249.39
2272.43
3515.18
2605.81
2980.82
2200.35
2984.75
4129.06
3904.9
4145.72
3784.15
3592.83
3577.36
3893.14
3726.05
3740.5
4034.02
4017.78
4027.16
3480.7
3937.47
3338.7
3367.08
3707.68
3985.38
3977.18
4225.08
3810.23
3947.34
3433.09
4142.78
3175.63
3350.28
3902.21
3341.39
4289.75
3427.39
4403.12
4395.76
4803.54
4217.1
3732.11
4576.85
3406.23
4399.8
4342.06
3191.02
3618.08
3024
3825.24
4996.69
2834.53
3568.13
2824.91
3064.96
3838.08
5641.82
4790.62
5106.57
4255.8
4327.9
3913.16
4156.24
4522.99
4203.06
3882.83
3825.47
4263.25
4536.47
4141.51
4399.99
3942.1
3912.08
4033.46
4951.06
4870.48
4995.7
2366.16
2883.6
2110.88
2411.62
3657.56
3852.93
3835.45
3677.37
3671.42
3457.67
4168.21
3921.56
3849.34
3734.68
3961.24
4177.39
4210.41
4243.07
3904.99
4824.22
4400.14
3824.42
4361.36
5030.01
3694.44
4226.82
2873.76
4079.61
3785.28
3781.97
3258.77
2744.79
3562.56
6237.11
5796.19
6211.49
3836.52
5210.73
5382.54
4849.09
6045.95
3091.04
2844.74
2476.2
2919.59
3726.7
3872.88
5147.74
3850.02
3038.11
2969.17
4136.4
3096.5
4540.98
SCALARS SignedDistance double 1
LOOKUP_TABLE default
175.849
189.108
174.791
177.82
151.64
195.347
268.496
142.457
174.571
193.316
169.647
184.106
201.189
189.69
190.24
193.538
177.46
165.137
159.935
180.036
154.299
190.135
193.892
207.066
175.782
172.56
175.031
172.117
212.848
186.491
165.583
184.615
180.827
181.968
145.37
141.218
230.52
218.397
214.414
186.736
180.805
195.387
190.221
194.778
175.333
184.265
193.924
193.131
191.471
194.296
190.975
181.283
170.232
192.546
192.574
173.005
179.758
182.276
170.85
176.355
184.259
168.661
145.57
155.747
148.164
154.479
177.675
147.451
156.539
155.747
135.644
161.559
193.967
181.488
188.972
201.56
190.753
203.25
205.331
195.654
198.559
199.994
199.03
190.709
178.346
179.277
176.39
178.586
166.589
169.824
160.476
181.352
177.612
172.507
181.028
165.475
169.682
173.684
180.914
174.65
175.893
185.687
222.27
217.757
248.377
163.063
150.758
184.724
155.194
168.318
141.685
159.98
173.75
167.806
167.976
183.393
177.695
186.88
134.993
156.669
165.163
180.395
205.974
130.691
133.192
209.97
185.544
166.381
221.804
191.746
196.89
227.929
221.54
264.377
228.05
180.04
178.373
215.36
193.08
177.224
178.527
178.607
178.416
186.678
186.618
193.826
199.708
173.122
182.971
184.738
159.855
148.278
167.993
200.773
177.927
174.794
183.822
214.602
185.021
209.799
193.965
201.555
182.028
178.768
171.032
202.672
190.154
201.175
182.567
184.164
190.591
184.041
188.414
188.532
190.758
188.931
186.035
197.4
193.116
198.27
197.562
196.107
191.745
190.713
191.033
189.291
191.857
196.886
195.954
198.791
196.904
194.836
168.466
168.618
184.706
175.189
176.24
173.351
177.908
197.716
193.534
193.385
191.44
192.676
191.686
191.992
175.521
173.327
179.667
179.176
171.773
174.768
187.414
178.328
184.811
191.036
193.567
183.766
168.059
180.942
177.111
165.891
167.466
166.375
160.328
191.045
172.364
164.163
169.859
173.97
166.828
174.452
142.272
145.745
143.215
156.05
151.132
151.293
154.93
152.426
158.24
174.661
161.462
161.581
186.884
192.098
175.85
179.021
167.913
170.104
145.765
144.458
143.048
160.375
147.772
157.399
146.918
155.942
159.503
155.23
164.003
130.703
137.761
139.71
166.986
154.311
151.854
164.14
150.294
138.56
198.96
174.406
183.155
204.809
205.94
172.755
170.422
193.963
185.757
185.876
176.906
169.141
191.956
187.702
199.169
196.464
192.854
196.226
199.733
187.18
201.952
205.304
188.851
198.447
196.757
192.298
210.565
200.118
209.228
194.582
198.444
199.426
199.883
196.178
194.708
195.422
196.814
194.917
191.33
203.695
198.781
204.22
191.684
194.698
196.015
200.432
201.346
204.53
183.56
186.708
186.568
183.918
173.622
176.275
171.675
180.227
180.696
177.135
177.29
180.904
181.026
184.051
162.114
163.594
153.219
176.396
167.669
174.205
172.169
173.875
177.16
182.094
179.683
176.994
185.81
181.358
186.873
187.833
175.756
177.666
177.734
168.267
171.141
179.342
174.631
176.597
177.702
184.907
167.679
169.378
174.177
170.544
167.341
168.338
173.562
170.979
173.194
185.194
176.45
173.391
173.717
170.239
185.625
174.844
179.275
175.144
181.454
147.248
157.016
198.136
183.446
190.544
171.012
180.495
232.087
230.568
260.644
202.94
219.092
209.761
229.082
228.719
230.959
191.803
215.721
191.172
146.431
146.258
164.562
151.624
166.558
153.83
169.368
200.714
188.972
154.304
174.732
175.837
175.669
178.733
170.555
161.519
168.938
154.131
154.365
169.452
154.921
146.227
140.013
158.62
142.248
148.517
174.055
169.926
173.935
174.975
169.83
176.582
164.855
166.065
159.554
188.524
185.468
193.753
178.035
185.301
183.023
183.711
184.29
180.172
137.984
142.207
151.677
148.903
143.251
138.691
176.981
157.369
171.749
171.532
170.104
163.43
180.025
184.701
160.216
174.263
216.101
192.823
203.861
134.631
127.848
137.393
126.958
134.396
129.973
140.036
188.629
182.175
171.461
208.793
197.162
221.357
157.892
173.529
158.504
168.382
169.753
190.87
199.353
185.079
227.343
217.076
204.971
214.97
221.321
184.345
206.989
224.438
219.755
211.008
220.061
234.525
235.858
263.568
249.047
222.801
236.318
219.89
223.399
245.757
228.048
262.925
250.692
241.275
181.514
178.676
188.542
183.785
179.422
178.852
177.983
222.615
219.856
188.165
206.814
198.407
214.257
206.201
173.384
177.196
173.828
179.057
179.22
181.513
184.054
180.275
180.661
184.336
181.588
178.851
175.485
181.886
177.617
175.183
178.985
177.806
176.667
188.124
183.298
189.349
179.824
188.127
196.624
197.771
186.429
186.85
202.317
197.677
198.888
189.212
195.772
185.805
167.869
180.614
178.705
169.276
180.117
186.627
188.691
186.821
182.799
181.005
186.933
176.015
180.416
189.466
191.544
181.351
186.452
183.051
166.771
152.079
159.99
165.162
167.478
139.916
165.122
148.891
137.84
141.79
176.87
172.044
177.519
181.494
169.867
154.151
162.074
163.456
226.247
212.326
219.585
215.74
190.375
179.543
173.94
175.733
183.394
190.913
172.799
178.097
175.804
174.496
174.368
184.143
175.785
179.921
176.986
183.959
180.595
176.666
183.394
223.22
232.065
225.016
214.643
195.67
158.962
185.557
173.699
184.631
197.664
186.475
212.261
189.829
201.203
204.877
205.507
205.754
207.469
179.97
180.639
183.659
191.275
201.201
207.103
212.511
210.713
191.616
183.383
206.502
196.119
211.493
