# vtk DataFile Version 4.2
vtk output
ASCII
DATASET POLYDATA
POINTS 642 double
-334.273 506.08 96.6393
331.323 502.409 95.9511
-333.916 -571.977 100.31
331.232 -568.995 100.804
-0.38668 -381.786 660.105
-0.444948 291.361 629.209
-0.263942 -352.021 -414.304
-0.178129 311.598 -458.573
544.091 -27.0557 -238.127
526.405 -34.2461 425.292
-549.181 -26.774 -240.707
-532.132 -34.2771 428.019
-497.161 277.086 284.695
-310.757 157.579 603.02
-193.554 474.155 407.618
191.966 472.333 406.526
-0.173869 600.577 96.8523
198.64 487.28 -225.481
-199.867 489.161 -226.643
-326.015 168.376 -425.673
-534.447 297.275 -106.139
-627.197 -30.7961 94.4493
308.871 156.338 600.187
492.416 273.532 283.155
-320.428 -236.527 620.928
-0.243268 -33.844 732.842
-509.954 -347.959 -96.0812
-512.115 -351.348 295.105
-0.369506 -27.4259 -542.923
-314.592 -225.45 -408.123
528.618 294.04 -104.14
324.08 167.949 -424.356
507.451 -348.965 293.439
317.225 -235.724 617.92
200.767 -564.007 427.805
-201.832 -565.757 428.94
-0.559595 -668.267 106.081
-194.018 -536.453 -213.035
193.039 -534.63 -211.942
313.09 -224.997 -406.002
506.586 -345.928 -95.4233
622.968 -30.9843 94.2913
-436.274 408.99 195.14
-365.549 399.353 360.107
-273.922 513.735 261.16
-438.317 66.0272 532.434
-425.691 227.683 462.394
-534.209 126.454 368.262
-99.7953 396.708 532.04
-261.278 330.262 523.089
-160.852 235.354 638.38
-104.64 568.841 262.423
-173.331 579.465 97.5966
98.9114 395.944 531.135
-0.189041 495.101 422.018
172.615 578.813 97.2353
103.588 567.567 262.075
271.574 510.672 260.195
-104.161 576.067 -71.3633
-279.5 515.794 -70.3259
278.893 515.89 -69.8696
103.403 574.307 -70.7047
-104.478 419.614 -360.682
-0.272192 517.229 -244.534
103.752 418.879 -359.995
-387.191 417.804 -180.698
-454.606 424.266 -10.281
-168.764 251.053 -464.527
-276.496 348.651 -348.266
-570.435 140.411 -189.055
-455.34 247.772 -289.169
-459.577 75.891 -353.916
-550.343 307.118 92.1555
-615.794 -26.3575 -79.8305
-624.616 141.525 -11.8844
-591.924 133.355 191.494
-599.505 -35.4279 268.962
361.673 395.98 358.092
431.834 404.789 193.331
159.391 234.283 636.181
259.511 328.56 521.169
529.174 125.433 366.199
422.572 225.904 460.051
434.972 65.2126 529.81
-164.176 69.471 699.659
-0.382818 137.953 706.119
-440.435 -136.695 535.801
-330.508 -34.0027 633.226
-0.288062 -214.237 717.296
-166.428 -141.775 703.143
-169.364 -318.701 663.184
-598.471 -199.355 200.681
-542.426 -198.11 371.848
-546.271 -195.85 -176.528
-598.967 -197.779 -4.90401
-440.895 -480.047 201.821
-539.187 -367.362 98.8901
-439.07 -476.36 -1.65762
-334.514 -27.6506 -438.569
-445.346 -131.276 -340.136
-0.202041 146.198 -529.864
-168.881 76.2828 -518.22
-164.187 -302.703 -438.957
-164.479 -130.689 -497.789
-0.0592806 -192.258 -490.868
274.796 346.667 -346.577
167.84 250.3 -463.139
450.353 420.743 -9.26275
383.927 414.737 -178.804
456.126 74.4784 -351.031
451.028 245.445 -285.962
562.603 138.227 -185.288
437.653 -477.196 201.267
374.432 -476.783 373.235
276.735 -589.453 269.885
437.294 -135.447 532.74
434.195 -304.829 472.776
537.142 -196.621 369.339
104.94 -493.231 563.518
274.622 -417.557 548.196
168.771 -318.089 662.054
105.035 -654.978 273.336
170.786 -639.891 103.541
-105.704 -494.135 564.521
-0.193622 -597.492 448.875
-171.725 -641.795 103.535
-105.488 -656.08 273.469
-278.674 -591.913 270.391
104.98 -620.866 -61.7876
271.765 -570.36 -62.8031
-273.096 -572.525 -62.9619
-105.802 -621.389 -61.7698
104.059 -460.272 -334.047
-0.177366 -543.364 -218.901
-104.854 -460.577 -334.516
368.51 -463.334 -167.085
435.614 -473.227 -1.43661
163.069 -301.686 -436.291
265.804 -398.482 -330.323
542.994 -194.948 -175.035
431.988 -298.305 -269.816
442.947 -130.966 -338.106
533.855 -364.5 98.8176
608.729 -27.0903 -77.7355
595.727 -196.515 -5.34292
591.231 -197.685 199.985
592.439 -35.6244 266.745
165.479 -141.521 701.976
328.883 -33.982 631.004
162.73 68.9606 697.24
-377.602 -479.259 374.845
-276.318 -419.196 550.076
-438.381 -306.836 475.708
-266.658 -399.535 -331.544
-370.294 -464.981 -167.984
-434.235 -299.442 -271.468
334.006 -27.4127 -437.662
162.775 -130.198 -494.621
167.871 76.4082 -516.899
585.209 131.11 190.495
615.39 139.261 -10.8217
543.968 303.967 92.1407
-389.629 462.539 146.046
-359.33 468.766 231.302
-306.314 516.298 180.832
-437.409 344.07 326.244
-404.503 409.379 281.963
-472.929 347.515 241.076
-236.025 499.675 337.296
-323.684 461.471 313.886
-283.37 443.199 387.491
-489.767 16.4411 483.939
-493.089 97.9104 454.684
-538.381 47.2259 400.921
-373.611 195.112 537.693
-436.335 149.342 501.656
-378.437 113.335 572.207
-520.002 202.345 329.878
-484.822 179.652 418.745
-466.437 254.827 377.916
-50.4108 346.338 583.619
-131.006 319.046 589.75
-81.4321 266.62 639.624
-229.545 406.886 469.404
-182.716 368.105 531.966
-147.523 438.776 472.7
-237.537 198.544 625.537
-213.175 284.637 583.771
-288.628 246.183 568.372
-397.638 315.983 412.814
-347.465 282.759 497.21
-316.548 369.188 445.226
-227.402 554.585 181.025
-255.437 548.955 98.014
-151.598 528.996 338.301
-190.906 547.78 263.979
-88.6628 598.31 97.0758
-140.094 580.889 181.293
-53.7544 591.971 180.381
49.5422 345.963 583.058
-0.377143 401.146 537.062
97.8023 490.677 418.909
50.4954 450.45 480.505
146.378 437.605 471.652
-51.1787 450.778 480.894
-98.6858 491.138 419.355
253.355 546.773 97.5214
225.553 551.951 180.238
303.494 512.869 180.149
53.1978 592.332 180.342
138.958 579.256 180.677
88.2085 597.642 97.0647
234.074 497.151 336.113
189.461 545.566 263.327
150.26 527.386 337.699
-52.8872 540.019 346.024
52.3781 540.377 346.312
-0.238682 572.788 263.546
-227.359 555.916 13.4615
-309.789 514.241 11.9403
-53.3746 596.886 12.2435
-139.822 583.614 12.6689
-241.98 507.025 -150.2
-191.867 552.618 -72.1885
-153.265 539.589 -151.544
307.59 512.09 11.4412
226.444 554.463 13.4257
152.335 537.876 -150.899
191.504 550.745 -71.3388
240.639 504.557 -148.625
139.4 582.739 13.1636
52.855 596.403 12.4781
-52.9112 369.88 -414.877
-0.201013 425.557 -367.039
52.4437 369.632 -414.595
-100.899 509.994 -240.05
-52.795 474.157 -306.456
-153.545 459.762 -297.487
152.427 458.376 -296.453
52.2644 473.839 -306.244
100.137 508.975 -239.542
-0.420616 584.39 -73.8247
52.3559 553.443 -160.498
-53.104 554.269 -160.736
-375.221 480.368 -43.4847
-398.117 467.877 40.8254
-297.615 458.458 -206.51
-339.086 474.868 -128.292
-501.298 367.075 -59.5736
-426.234 426.691 -96.6464
-466.979 363.384 -146.571
-85.4334 284.53 -467.376
-138.446 340.654 -420.096
-304.82 262.124 -393.151
-224.579 303.769 -412.641
-248.72 211.401 -450.253
-191.936 389.084 -360.109
-241.384 425.533 -292.606
-566.261 57.4468 -219.059
-523.729 109.971 -278.255
-510.174 25.2693 -301.329
-501.792 276.504 -202.093
-518.2 196.307 -242.607
-557.792 220.953 -149.699
-399.743 124.633 -397.361
-463.323 163.008 -327.429
-397.171 210.997 -364.609
-338.369 390.045 -270.74
-372.777 304.158 -325.311
-427.46 338.723 -239.989
-451.245 420.871 91.9192
-552.028 308.667 -7.42183
-508.667 369.649 40.3131
-497.416 360.589 142.698
-529.852 295.909 187.536
-589.316 -26.7678 -162.399
-604.474 57.5246 -136.705
-633.86 58.9852 38.5859
-630.104 59.3515 -47.9605
-624.255 -26.9066 7.18334
-604.627 143.184 -101.028
-589.217 222.579 -61.1775
-573.719 46.8825 321.991
-571.271 -34.7064 350.78
-550.086 206.01 238.858
-566.106 129.276 283.403
-617.313 -34.6441 183.028
-598.51 48.8061 233.199
-615.144 53.4241 142.836
-595.594 228.283 40.0186
-621.543 142.621 90.6432
-584.149 224.208 141.936
355.771 465.048 230.23
386.154 458.406 144.933
280.819 440.442 385.779
320.633 458.205 312.321
467.52 343.223 238.573
400 405.848 280.163
431.924 339.717 324.037
80.3942 265.994 638.52
129.91 318.147 588.272
286.778 244.791 565.816
211.715 283.415 581.531
235.777 197.266 622.513
181.458 366.799 530.421
227.761 404.982 467.905
532.871 46.7932 398.599
488.776 96.9051 452.156
485.509 16.2054 481.455
463.073 252.34 376.552
480.853 178.253 416.446
515.601 200.405 328.624
375.786 112.197 569.513
432.907 148.013 498.974
370.931 193.638 534.999
313.897 366.528 443.314
345.1 280.889 495.137
394.388 313.079 411.153
-82.2047 190.427 680.508
-0.415438 217.716 673.527
-240.105 115.854 657.829
-164.669 154.704 675.272
-0.369665 53.817 726.247
-83.433 104.912 709.996
-83.5754 19.1417 725.066
-492.1 -84.7929 485.389
-446.181 -33.9072 539.707
-326.605 -136.318 628.168
-389.817 -86.0138 589.58
-384.591 -188.609 582.242
-388.589 16.895 587.946
-325.185 63.669 624.607
-0.290683 -300.849 698.058
-85.9264 -270.644 701.114
-85.6395 -353.803 667.686
-83.9534 -87.5686 727.313
-85.2441 -178.679 717.05
-0.23496 -123.364 729.15
-248.801 -279.518 648.788
-171.69 -233.301 693.952
-246.603 -192.653 671.664
-250.108 18.0114 672.933
-251.41 -88.2102 675.744
-166.874 -33.9653 708.457
-580.094 -116.841 323.327
-542.73 -116.453 402.623
-618.566 -117.454 149.698
-606.873 -117.916 236.59
-532.341 -277.071 336.084
-575.948 -200.133 287.617
-562.374 -277.767 249.239
-549.957 -112.225 -209.809
-586.58 -112.586 -130.097
-561.185 -275.481 -52.3615
-579.322 -198.664 -93.0427
-532.281 -273.805 -138.424
-611.137 -114.584 -42.9803
-621.719 -116.458 44.5811
-391.352 -531.272 151.59
-446.756 -484.88 99.2936
-390.632 -529.019 48.6123
-532.405 -363.603 197.395
-495.789 -427.307 150.33
-481.503 -419.519 250.044
-479.047 -415.651 -50.2556
-494.763 -426.101 47.9879
-530.786 -361.989 0.64868
-608.431 -202.085 98.0696
-577.005 -286.188 46.979
-577.728 -286.898 150.352
-458.473 -27.1661 -352.436
-500.007 -79.3525 -293.823
-336.52 72.2386 -441.667
-402.224 25.1356 -402.948
-382.952 -180.515 -378.59
-394.54 -80.1287 -394.185
-328.47 -129.315 -429.382
-0.195983 231.522 -499.761
-85.3176 201.609 -504.838
-84.4643 25.348 -538.977
-86.0506 112.255 -532.526
-0.218952 59.8912 -545.026
-171.121 163.826 -497.744
-250.027 124.52 -480.674
-87.6184 -330.526 -433.338
-86.5728 -252.057 -471.263
-0.213859 -274.25 -455.878
-242.215 -181.115 -458.716
-166.815 -219.433 -472.383
-240.45 -266.123 -427.933
-0.303029 -110.661 -526.954
-83.9739 -162.673 -501.547
-82.8087 -78.5073 -528.472
[...]
POINT_DATA 642
SCALARS Mean_Curvature double 1
LOOKUP_TABLE default
0.0028122
0.00237312
0.0036076
0.00339311
0.00401189
0.00372686
-0.000614629
0.00382114
0.00366819
0.00357626
0.00388722
0.00372504
0.0011192
0.0029545
0.00324924
0.00324721
0.00217828
0.00292119
0.00292851
0.00224931
0.00301935
0.00251143
0.00299807
0.00108638
0.00405952
0.00274598
0.00297616
0.00281513
0.00379724
0.00298807
0.00302464
0.00267906
0.00291882
0.00404426
0.00313862
0.00318044
0.00347417
0.00324877
0.00291508
0.00303167
0.0030376
0.00310669
0.00215469
0.00343395
0.00342697
0.00322987
0.00307798
0.00316691
0.00315828
0.0027538
0.00339478
0.00364307
0.00310155
0.00314625
0.00208014
0.00351057
0.00349659
0.00342629
0.00318879
0.00165753
0.00282398
0.00288086
0.00326577
0.00335758
0.00329026
0.00338288
0.00410995
0.00324005
0.00189472
0.0039799
0.00338126
0.00356533
0.00393755
0.0030591
0.00465225
0.001666
0.00290195
0.00333339
0.00185185
0.00328323
0.00280563
0.0032052
0.00312305
0.00325934
0.00351669
0.00341006
0.00208066
0.00302816
0.0026032
0.00173602
0.00297084
0.00300512
0.00279659
0.00320933
0.0025392
0.00274871
0.00338994
0.00307211
0.00152947
0.00271199
0.00329533
0.00389927
0.00425851
0.0027101
0.000148971
0.00190732
0.00321093
0.00392451
0.00333286
0.00387235
0.00338525
0.00348704
0.00302128
0.00319488
0.00332912
0.0025203
0.00299684
0.00281783
0.00337543
0.00331137
0.00324804
0.00366571
0.00219603
0.00342074
0.00335366
0.00218599
0.00365665
0.0035033
0.00326484
0.00289727
0.00274856
0.00304623
0.00368848
-0.00169737
0.00353518
0.00327878
0.00301663
0.00359869
0.00323679
0.00322747
0.00317221
0.00289418
0.00339714
0.00243834
0.0032568
0.00287182
0.00270503
0.00200387
0.00326283
0.00341768
0.00319961
0.00327095
0.00299268
0.00312331
0.00324285
0.0031564
0.00230274
0.00223807
0.00411747
0.00143681
0.00432168
0.00377743
0.00213895
0.00337235
0.00341201
0.00333034
0.0034831
0.00242864
0.00349409
0.00347296
0.00332431
0.00316124
0.00321522
0.00317762
0.00317554
0.0032515
0.00322636
0.00280389
0.0032202
0.00242784
0.00256982
0.00256679
0.0034391
0.00286602
0.00304462
0.00286911
0.00306985
0.00248252
0.00270314
0.00211687
0.00257146
0.00275717
0.0034363
0.00306851
0.00350704
0.00345781
0.0039068
0.00331909
0.00283466
0.00255659
0.00280925
0.00310043
0.00293031
0.00286674
0.00293447
0.00298827
0.00307221
0.00330268
0.00334903
0.00321977
0.00310347
0.00384476
0.00348165
0.00347111
0.00344207
0.00316472
0.00353993
0.00227357
0.00305587
0.000885018
0.00301929
0.00302662
0.00187167
0.00285803
0.00309456
0.000808384
0.00314027
0.00309875
0.00268704
0.00143792
0.0031422
0.00301651
0.00329334
0.00329328
0.00335807
0.00309443
0.00321212
0.00329956
0.00328151
0.00329811
0.00310496
0.00328256
0.00299966
0.00305579
0.00515028
0.00296779
0.00318413
0.00383434
0.00438461
0.00330092
0.00316123
0.0032609
0.00328924
0.00196173
0.00326604
0.0028046
0.00331341
0.0024109
0.00354244
0.00455148
0.00331243
0.00336765
0.00310755
0.00291788
0.0048324
0.00329734
0.0034731
0.00356299
0.00365384
0.00336906
0.00292649
0.00380513
0.00373479
0.00285094
0.0031118
0.00313179
0.00379674
0.00414017
0.0050586
0.000535404
0.003608
0.00413386
0.00308683
0.00309314
0.000544762
0.00246838
0.00252175
0.00202275
0.000620349
0.00342387
0.00501639
0.00441371
0.00336269
0.00186163
0.00327721
0.00348255
0.00194439
0.00356814
0.00274696
0.00339542
0.00254411
0.00272837
0.00247204
0.00289353
0.00305995
0.00288326
0.00321547
0.00321302
0.00330352
0.00278552
0.00324654
0.0030613
0.00321336
0.00321799
0.00314557
0.00269529
0.00268416
0.00221895
0.00352117
0.00344351
0.00311841
0.00346236
0.00346496
0.00349697
0.00341085
0.00330489
0.00322368
0.00122657
0.00291523
0.00356054
0.00325044
0.00306759
0.00416923
0.00369773
0.00335174
0.00332302
0.00233947
0.00241193
0.00378216
0.00468575
0.00377803
0.00283225
0.00263865
0.00279352
0.00342476
0.00310148
0.00251627
0.00377318
0.00281621
0.00273995
0.00299915
0.00226962
0.00233182
0.00254373
0.00334797
0.00290038
0.00286317
0.0030025
0.00284705
0.0034588
0.00333594
0.00316662
0.00328734
0.00276821
0.00299382
0.00330726
0.00314163
0.00354024
0.00325801
0.00339611
0.00349475
0.00213098
0.00280065
0.00357336
0.00290067
0.00226661
0.00299786
0.0032646
0.00293681
0.00348001
0.00422132
0.0039973
0.00280748
0.00401455
0.00341004
0.00341423
-6.44871e-05
0.00286256
0.00341785
0.00277297
0.00432127
0.00174237
0.00374524
0.00304677
0.00266986
0.002158
0.00325957
0.00330949
0.00219085
0.00331097
0.00259504
0.00313332
0.00259091
0.00348378
0.00494215
0.00314783
0.00330111
0.00437763
0.00354909
0.00354203
0.00378216
0.00367657
0.00393452
0.00340915
0.00338156
0.0036927
0.0030443
0.00330393
0.00335656
0.00351173
0.0033697
0.00353653
0.0028725
0.00264066
0.00292277
0.00288884
0.00274154
0.00300669
0.00334138
0.0036334
0.00338416
0.00312008
0.00251764
0.00322539
0.00323341
0.00320392
0.00229609
0.00281644
0.00309599
0.00302533
0.00353543
0.00312381
0.00296047
0.00323767
0.0032236
0.00325525
0.00390866
0.00327851
0.00342265
0.00302791
0.00332664
0.0033593
0.00239607
0.00275067
0.00279002
0.00461286
0.00329857
0.00338865
0.00326015
0.00344476
0.00343737
0.00338123
0.00348461
0.00332509
0.00357243
0.00337597
0.00248642
0.00281496
0.00236958
0.0035188
0.00338827
0.00352879
0.00324998
0.00419291
0.00294933
0.00349951
0.00344632
0.00476813
0.00274996
0.0030297
0.002199
0.0033315
0.00299914
0.00262361
0.0041254
0.00322842
0.00284672
0.00407468
0.00312671
0.00280215
0.00316775
0.00230829
0.00387402
-0.00167326
0.00382222
0.00385263
0.0039649
0.00433965
0.00430447
0.00389205
0.0037049
-0.000823044
0.00324403
0.00331231
0.00293972
0.00318984
0.00323229
0.00321631
0.00300332
0.00314678
0.00324289
0.00367902
0.00413287
0.00330017
0.00299093
0.0030346
0.00309586
0.00305232
0.00252317
0.00317937
0.00202435
0.00312924
0.00298117
0.00297367
0.00282311
0.00291953
0.0031731
0.00324866
0.00325424
0.00323754
0.00328414
0.00295746
0.0033091
0.00316705
0.00308371
0.00289631
0.00266621
0.00342803
0.00309029
0.000963464
0.00333278
0.00265435
0.00359735
0.00277614
0.00303373
0.0029417
0.00251539
0.00365954
0.00223402
0.00305998
0.00263985
0.00349859
0.00382658
0.00356935
0.00457118
0.00212183
0.00360465
0.00331942
0.00319456
0.003342
0.0030701
0.00156536
0.00354634
0.00338753
0.00352723
0.00343238
0.00290397
0.00260149
0.00279336
0.0025613
0.00296192
0.00334693
0.0033649
0.00292118
0.00300627
0.00325165
0.00328798
0.00321184
0.00326779
0.00323866
0.0024422
0.00306332
0.00323023
0.00321995
0.00318814
0.00329898
0.00330799
0.00312864
0.0041795
0.00289987
0.00360654
0.00276598
0.00324731
0.00293499
0.00317258
0.00303271
0.00311084
0.0031507
0.00306035
0.00313211
0.00296097
0.00298706
0.00310549
0.00322966
0.00322214
0.00323577
0.00335566
0.00276329
0.00225637
0.00367849
0.0033427
0.00371723
0.00349788
0.00243175
0.00298221
0.00294129
0.00292628
0.00402209
0.00284957
0.00421969
0.00358409
0.00205844
0.00247941
0.00247741
0.00299586
0.00167054
0.00176708
0.00261169
0.000597441
0.00393557
0.00428016
0.00335211
0.00516896
0.00358806
0.00350129
0.00336229
0.00346084
0.00354953
0.00378274
0.00450836
0.00353663
0.00429581
SCALARS CoVolArea double 1
LOOKUP_TABLE default
6497.26
6465.19
6361.04
6304.63
6658.56
6105.34
6348.87
6594.34
6388.09
6063.67
6492.93
6144.03
8292.95
7951.32
7910.17
7855.16
8223.61
8484.34
8520.44
8552.58
8641.37
8371.6
7885.11
8191.25
8249.87
8191.1
8127.03
8248.41
8022.85
8050.79
8473.4
8461.95
8117.35
8196.56
8621.29
8662.64
8142.94
7798.7
7765.03
7988.62
8034.07
8144.77
7846.51
8255.48
7581.62
7502.5
8285.39
7497.14
7511.13
8341.06
7501.58
8407.68
7735.86
7489.1
8381.69
7670.58
8383.84
7508.69
8683.07
8084.98
7950.85
8698.75
8063.42
8803.03
8034.52
8930.57
7842.75
8111.36
9087.68
8119.9
9033.03
7915.21
8560.07
7921.37
8590.01
8675.41
7611.81
8175.88
7751.71
7475.21
8262.45
7358.59
8161.47
7400.65
8403.08
7535.98
7800.94
8571.74
8031.83
8773.06
8085.56
8439.35
7718.92
7791.44
8552.43
7864.89
8458.29
7682.33
8830.97
7858.88
8018.65
8663.2
7304.65
8567.82
7866.68
9004.84
8088.36
7721.81
8829.98
7829.64
8891.43
7982.38
7762.05
8703.79
7864.32
7695.99
8566.46
7582.04
8256.26
8875.72
8032.79
8800.55
7842.89
8279.86
9134.49
7871.68
8827.03
7938.65
8392.2
7605.99
7657.5
8415.56
7347.05
8552.44
7363.21
8293.64
7608.57
7316.68
8258.49
7681.72
8356.36
7783.66
8351.34
7823.12
8376.9
8348.34
7518.16
8722.67
8458.33
8378.78
8797.93
8961.58
8677.38
8322.53
8373.63
8427.27
8698.27
8569.29
8625.66
8554.82
8419.13
8377.98
7761.43
7771.13
7606.64
8313.52
7670.7
7680.24
7429.45
7573.38
8175.27
7382.14
7533.01
7350.52
8175.03
7518.88
7415.62
7649.39
7538.05
8329.64
7396.64
7604.36
7342.47
8198.1
7604.76
7418.89
7449.02
7635.78
8242.57
9303.97
9298.58
9272.75
7737.67
7743.41
8214.35
7661.51
7657.01
7739.5
8449.44
7388.94
7598.58
8196.23
7607.02
7378.84
7622.71
8241.5
7683.6
7685.07
7558.81
8434.02
7710.33
7622.14
7367.3
7625.88
8166.93
9331.79
9301.27
9438.05
8054.59
7925.1
8543.46
7889.36
8016.99
8091.37
8727
7826.56
7953.58
8716.32
8047.47
7960.59
7855.44
8539.35
7942.19
8141.49
7926.67
8735.04
8116.22
7982.1
7947.51
8097.75
8705.97
9660.95
9722.77
9726.31
7986.67
7786.04
8837.61
8099.09
7958.83
8072.53
8948.57
7957.61
8159.03
8995.46
8270.59
8081.15
8230.58
8909
7818.21
8113.84
7805.65
9013.12
8305.03
8160.77
7887.82
8172.91
8893.26
9986.64
10037.4
10013.8
7958.51
8737.48
7966.74
7884.13
8506.2
7781.38
8015.21
8508.78
7906.58
7888.05
8125.52
8830.91
7653.74
7392.38
8640.53
7885.64
7746.99
7974.98
8673.21
9583.14
9448.55
9456.71
7691.67
7688.63
8101.83
7479.18
7613.07
7604.68
8258.98
7327.57
7577.98
8167.8
7590.09
7415.85
7555.72
8134.37
7247.45
7422.31
7271.17
8197.06
7404.32
7492.28
7327.81
7428.64
8085.59
9185.16
9185.91
9192.88
7565.26
7321.42
8271.21
7590.09
7539.77
7645.92
8393.46
7521.9
7698.33
8633.27
7866.86
7740.06
7671.45
8289.68
7906.33
8092.47
8003.05
8621.12
8094.12
7902.26
7830.29
7990.21
8592.63
9469.23
9707.05
9593.71
7657.72
7490.31
8425.16
7677.94
7694.57
7760.28
8443.51
7812.61
7977.9
8454.74
7862.38
7629.09
8009.14
8572.71
7696.86
7802.92
7555.36
8450.4
7827.15
7771.54
7601.14
7758.81
8405.11
9411.31
9432.2
9402.14
7975.68
7814.96
8714.19
8010.03
7661.44
7997.22
8551.36
7960.03
8177.2
8464.84
8011.81
7729.61
8119.26
8711.58
7359.5
7720.29
7794.16
8411.25
7634.65
7453.36
7525.96
7807.75
8369.21
9733.99
9604.71
9699.3
8131.31
7936.56
8855.06
8191.17
8012.78
8216.48
8877.35
7689.99
7873.1
8809.76
7978.12
7829.3
8012.51
8767
7676.03
8004.82
7686.36
8785.8
8083.73
7826.11
7995.23
8162.89
8848.8
9885.93
9883.26
9911.3
7615.01
7937.6
7708.72
8519.13
7929.33
7648.79
7907.04
7979.26
8745.54
7401.58
7733.92
7372.67
8489.72
7807.54
7710.29
7569.92
7763.3
8449.62
8103.4
8297.42
7996.72
8862.28
8278.78
8145.75
7739.38
8174.89
8611.7
9636.62
9684.02
9774.84
7972.97
7680.2
8877.91
7996.05
7651.75
7947.5
8542.53
8105.39
8366.15
9039
8387.95
8178.83
8371.48
9016.41
7746.25
8023.91
7795.51
8537.78
7966.3
7646.62
7979.59
8056.43
8918.18
10026
10037.3
9810.58
7784.45
7522.19
8539.71
7731.44
7422.76
7611.72
8020.45
7565.43
7821.87
8046.4
7636.84
7472.74
7752.02
8543.68
7392.86
7801.72
7407.75
8051.45
7639.95
7169
7184.92
7654.55
8076.99
9721.9
9432.21
9413.75
7682.41
7505.58
8188.04
7624.59
7512.04
7654.76
8253.85
7345.43
7310.74
8187.59
7510.84
7408.53
7421.86
8144.83
7699.4
7821.85
7715.43
8280.71
7701.97
7534.78
7606.08
7734
8257.24
9218.1
9228.89
9256.56
7716.82
8309.22
7672.26
7712.72
8310
7668.02
7858.73
8385.41
7833.04
7720.77
7712.81
8331.7
7517.95
7303.46
8296.35
7609.25
7580.71
7563.62
8308.74
9319.11
9320.2
9290.85
8073.69
8520.15
7944.22
8073.95
8585.52
7577.11
8199.26
7552.74
7767.61
8557.03
7539.72
8367.24
7620.93
7561
8230.95
9622.64
9413.01
9552.5
8010.25
8832.01
8060.5
8014.17
8624.15
8323.43
8714.73
8248.64
8321.89
8926.82
7859.42
8559.26
7875.73
7895.77
8566.21
9879.18
9805.7
9741.54
7314.88
8186.31
7441.68
7550.03
8270.19
7746.58
8346.48
7743.88
7706
8255.1
7917.6
8321.7
7807.55
7782.79
8367.4
9287.13
9335.53
9301.65
7876.86
8486.06
7897.91
7893.67
8601.22
7688.57
8351.32
7758.81
7626.2
8384.16
8158.18
8644.11
8081.96
7978.73
8440.54
9672.72
9602.7
9669.65
7558.99
8462.29
7850.64
7760.65
8512.97
7882.62
8634.69
7949.63
7775.21
8331.55
7814.74
8354.87
7724.71
7810.03
8569.04
9283.43
9394.18
9297.35
SCALARS SignedDistance double 1
LOOKUP_TABLE default
371.841
388.847
371.892
382.06
300.495
410.861
477.702
308.018
369.222
413.026
355.901
394.617
427.052
405.57
402.681
410.058
375.755
346.799
338.127
338.38
297.399
397.561
416.033
442.55
362.406
367.075
378.553
369.334
399.906
393.266
318.663
345.34
386.384
375.965
310.527
302.264
427.408
418.41
416.826
399.032
390.181
409.821
394.89
409.473
377.045
397.509
418.039
414.234
413.18
418.322
405.811
381.687
363.359
417.008
412.183
369.086
381.778
390.064
356.438
363.997
372.822
358.47
314.907
331.625
319.534
315.472
351.076
316.477
326.312
303.399
293.561
334.977
380.15
371.471
351.203
424.352
405.145
425.893
416.359
414.581
427.606
429.695
430.021
410.775
380.326
381.189
381.187
384.433
351.029
363.124
317.836
384.929
382.174
372.787
383.126
360.158
366.733
375.329
377.879
375.231
326.585
361.193
431.44
415.56
466.946
335.158
322.88
364.682
324.652
345.323
308.956
324.803
375.288
356.152
356.818
395.2
376.81
400.442
289.228
326.944
326.183
344.772
396.899
282.457
281.318
396.904
343.31
346.894
443.102
401.808
397.924
448.285
448.096
479.649
453.534
391.843
387.176
426.05
404.194
383.347
388.892
384.295
384.657
384.669
396.277
406.421
425.739
369.099
393.25
390.913
340.665
314
359.018
401.537
385.457
380.551
388.05
412.984
365.872
440.613
373.873
398.408
380.336
382.533
370.093
419.575
400.351
413.37
389.059
391.809
403.469
395.832
405.363
404.282
411.685
407.716
400.962
423.316
415.701
424.327
416.307
414.397
405.845
412.139
414.119
409.75
407.591
416.609
416.965
423.524
420.929
417.609
365.405
364.589
389.723
375.201
365.993
368.017
379.77
417.672
417.199
409.574
414.031
415.557
413.637
407.34
376.822
375.821
385.419
378.313
371.915
366.782
399.287
382.844
394.36
403.157
402.041
391.365
361.812
371.655
364.467
357.253
351.893
357.385
345.466
381.33
368.557
352.334
362.985
360.175
360.467
362.522
309.231
314.151
311.024
333.092
322.8
324.751
331.786
324.859
337.662
361.496
345.883
343.875
359.045
381.655
342.889
341.227
321.847
321.466
299.838
310.39
311.362
328.074
319.19
327.772
318.411
329.835
331.137
315.856
342.479
287.787
290.544
291.657
335.323
304.617
312.06
321.883
310.327
297.612
389.92
336.86
361.686
403.096
419.02
359.942
338.58
392.363
363.019
384.508
314.124
316.79
410.126
399.8
425.618
420.228
406.578
416.252
414.342
358.575
393.753
404.355
400.508
400.391
415.783
407.197
434.455
419.825
437.64
410.879
420.317
426.374
424.876
417.577
421.501
421.253
421.618
419.96
410.882
437.287
429.065
437.808
412.765
420.624
423.134
429.42
431.594
436.344
390.581
395.575
395.529
391.764
370.487
376.755
368.307
386.15
388.485
378.35
381.912
378.194
390.333
394.023
330.241
333.989
308.222
368.304
356.754
363.145
336.906
349.077
368.557
386.271
379.309
375.62
391.859
388.063
395.39
392.76
376.319
383.241
377.512
365.478
367.587
380.673
375.202
378.52
374.811
387.033
362.645
365.083
373.372
367.063
362.552
363.168
376.729
369.444
374.389
384.591
375.872
371.882
363.186
365.791
363.432
359.78
384.325
376.377
386.566
312.288
318.585
379.006
344.451
362.059
328.401
348.731
458.987
455.61
474.662
402.767
425.471
406.364
438.253
445.206
425.261
385.01
401.553
390.748
317.33
313.694
339.962
326.986
337.668
328.67
335.671
392.239
367.022
315.76
333.671
339.605
346.167
344.792
355.728
329.421
346.862
322.252
320.106
341.081
314.888
310.81
306.974
326.766
310.553
318.495
376.148
364.558
371.327
373.272
366.702
378.88
329.083
352.43
332.59
403.896
399.061
409.004
374.17
390.425
391.03
393.957
391.737
382.82
289.423
303.295
311.097
315.093
305.798
297.219
350.64
322.543
346.719
364.897
354.955
340.49
372.509
387.095
316.725
349.162
412.943
376.977
383.385
285.205
276.776
288.407
276.424
289.212
280.091
293.79
382.058
368.816
364.262
386.489
375.076
415.478
320.516
342.527
312.094
305.131
302.225
345.734
402.335
393.48
444.287
421.78
408.31
416.344
432.077
385.986
399.525
435.533
418.079
406.712
425.17
449.446
464.009
479.184
472.33
449.2
465.609
433.513
437.177
472.072
453.933
473.845
471.36
465.164
391.966
385.1
400.766
395.904
388.821
389.56
388.457
451.251
437.499
400.565
412.517
408.493
419.443
409.579
376.211
382.157
375.398
388.463
387.009
389.222
393.018
388.527
392.317
396.613
393.665
389.783
379.717
390.717
384.432
379.438
385.175
373.926
379.325
399.099
387.183
396.269
386.551
394.354
412.784
420.855
396.163
401.735
424.835
415.215
416.947
396.367
408.734
393.128
336.322
379.199
356.603
359.635
371.015
401.447
404.282
401.642
393.427
387.786
396.323
374.871
383.011
401.741
406.327
386.231
395.821
385.727
356.439
320.53
339.32
353.495
357.189
296.628
332.01
311.801
296.435
304.033
382.231
365.156
373.302
371.364
358.094
325.378
338.425
347.696
442.752
408.277
422.63
411.762
396.642
383.996
379.419
381.151
390.822
397.389
372.351
385.281
379.507
377.255
378.858
391.946
382.306
387.865
373.188
394.939
385.825
368.128
369.148
448.793
426.328
441.287
421.288
406.287
321.623
357.976
333.867
347.296
381.413
396.554
403.196
390.664
429.397
427.04
435.383
437.897
442.217
355.607
341.027
337.993
380.768
407.63
404.046
435.411
419.335
378.316
357.279
413.844
380.571
423.048
