# vtk DataFile Version 4.2
vtk output
ASCII
DATASET POLYDATA
POINTS 642 double
-145.533 233.349 92.7644
121.228 216.128 76.2086
-178.277 -282.189 131.751
158.585 -283.485 133.926
-5.77246 -290.535 397.079
-8.59413 50.846 345.481
1.8524 -141.972 -75.0509
-3.64684 168.901 -221.565
258.607 40.4376 -78.4551
195.388 -57.4553 257.8
-278.263 45.7807 -80.1188
-222.493 -63.7347 258.756
-173.803 108.544 147.295
-128.964 5.91627 324.392
-93.0624 197.372 174.158
71.2366 198.809 171.859
1.67051 258.483 66.2272
91.539 217.147 -103.248
-94.1239 226.375 -107.281
-168.644 108.093 -135.638
-314.705 150.856 -81.7761
-272.427 -46.2474 40.3694
122.124 3.07588 315.193
166.222 84.1951 148.832
-124.777 -221.265 354.176
-5.1027 -40.9592 398.962
-231.603 -186.465 11.8606
-227.244 -213.188 197.513
-3.67957 83.5639 -216.334
-169.876 -109.331 -120.842
286.633 145.93 -85.5166
183.604 101.203 -170.266
205.84 -207.149 191.141
105.427 -213.504 346.155
77.5005 -345.807 318.105
-88.0185 -351 321.982
-0.154516 -296.996 244.592
-197.665 -232.977 -22.1078
180.384 -234.508 -21.7974
155.714 -117.88 -120.493
215.718 -180.653 4.69269
259.658 -39.4985 29.4984
-155.961 207.817 100.029
-126.823 202.115 159.185
-122.623 245.594 139.496
-185.575 -19.2668 300.17
-175.683 38.1065 262.086
-211.138 -0.51592 231.867
-51.5596 149.365 262.199
-89.6201 123.087 263.446
-43.5848 33.8848 361.059
-85.3199 252.159 134.653
-83.6678 260.349 85.6999
35.0799 149.7 261.499
-2.12149 187.716 203.599
64.6986 262.228 80.2384
69.1432 252.198 135.723
99.5354 240.368 137.742
-58.2332 258.128 -9.4395
-161.655 205.464 -29.1077
149.131 191.052 -23.2278
47.4869 258.814 -2.29672
-53.9978 211.313 -178.856
-5.26284 244.964 -116.265
41.9803 209.353 -178.163
-270.195 188.057 -75.1696
-275.807 179.475 -78.7865
-82.6543 146.364 -222.056
-159.052 177.546 -139.354
-323.829 134.939 -83.0567
-293.484 144.479 -116.565
-272.291 102.796 -120.509
-285.054 139.617 -52.2778
-282.207 35.9994 -35.6552
-320.712 132.481 -88.3671
-234.78 59.9291 55.3565
-245.527 -83.1196 179.199
99.3953 189.947 156.28
132.775 190.429 76.8007
27.5843 33.9566 351.515
79.1112 116.896 259.851
188.665 3.91519 231.85
163.514 33.8725 256.301
169.55 -24.7043 294.463
-43.6703 -5.94535 392.028
-9.89867 5.6753 389.917
-191.705 -108.514 301.947
-148.513 -54.4963 341.766
-3.15075 -193.677 395.541
-63.0797 -140.142 393.739
-79.4921 -255.796 394.464
-259.534 -138.542 143.501
-235.316 -134.252 227.936
-266.885 -88.3283 -37.4311
-265.049 -103.261 37.9004
-212.106 -262.539 162.777
-253.706 -207.748 110.742
-216.2 -238.46 76.9614
-183.03 14.3547 -131.219
-227.167 -48.2209 -93.5543
-5.28411 145.733 -236.133
-65.4178 145.929 -215.735
-196.421 -135.797 -115.125
-113.193 -30.6409 -171.157
16.1535 36.1606 -114.45
149.003 169.338 -127.849
76.803 145.152 -220.993
250.733 170.995 -73.4044
244.612 180.577 -80.79
254.746 100.411 -115.071
271.663 139.3 -112.762
299.21 117.665 -83.8471
191.022 -252.959 163.956
141.771 -283.283 267.108
108.641 -318.221 253.11
174.534 -97.919 298.64
165.14 -208.832 289.027
214.541 -136.025 218.28
33.1433 -326.432 378.997
96.1007 -280.438 360.463
62.0369 -257.406 391.836
49.1975 -346.982 309.164
121.189 -304.785 177.773
-45.4751 -332.246 386.214
-6.62085 -370.605 344.237
-120.632 -299.056 182.272
-65.6744 -354.04 321.783
-120.714 -322.842 259.95
170.326 -274.129 73.0536
168.288 -259.576 43.7635
-178.644 -264.278 48.1803
-176.581 -243.499 83.147
161.595 -178.731 -48.5405
7.55478 -207.114 -72.5236
-158.114 -173.73 -44.7003
180.461 -231.38 -21.7955
200.649 -231.506 69.3581
162.044 -134.682 -112.228
174.503 -182.044 -72.2956
254.161 -85.1262 -34.794
199.674 -151.414 -64.3675
225.367 -47.8274 -87.1047
228.007 -206.204 107.939
270.372 25.923 -24.0955
256.365 -92.0689 17.1364
228.345 -139.421 152.111
221.243 -81.9795 172.338
49.5891 -139.445 391.78
137.298 -56.8021 336.957
27.5429 -7.57232 382.785
-161.22 -288.821 276.395
-115.495 -282.608 366.681
-187.061 -212.609 301.066
-190.315 -181.305 -78.2819
-197.455 -234.19 -21.9317
-210.9 -153.268 -69.6746
179.01 25.4629 -121.778
105.823 -23.8748 -172.628
59.2297 149.301 -220.6
212.726 38.5972 45.9021
298.675 107.56 -82.2664
256.681 136.432 -52.6346
-154.29 219.674 98.1245
-141.954 231.904 132.419
-131.198 246.804 124.233
-133.926 171.028 155.859
-142.958 216.691 137.288
-156.765 185 101.672
-113.612 237.753 151.828
-130.989 228.359 148.222
-115.988 206.232 166.605
-204.201 -40.8805 279.199
-200.736 -9.79458 267.392
-219.553 -31.0991 247.187
-162.849 21.5191 293.911
-181.734 8.99921 284.663
-165.597 -5.71231 311.581
-201.587 34.3278 204.373
-194.151 21.0895 250.986
-175.818 64.2922 219.111
-22.9982 96.2922 285.884
-38.0299 79.5104 295.257
-28.3929 41.1109 357.563
-84.2242 167.682 233.417
-69.8261 143.951 264.492
-68.9744 170.617 239.029
-77.36 20.5342 346.624
-73.6187 67.4699 295.461
-113.124 46.6634 298.923
-142.039 116.035 205.496
-128.699 73.1103 258.08
-108.316 159.881 216.395
-112.499 256.701 123.703
-116.365 256.098 97.2753
-97.632 241.248 149.899
-105.029 250.987 138.106
-67.7524 264.011 70.8498
-91.5212 258.639 117.217
-56.3428 255.604 108.44
10.83 98.3908 285.627
-4.54783 148.469 262.686
49.2043 190.853 190.822
22.4482 167.753 244.021
51.6071 168.92 234.619
-34.0131 166.904 244.889
-62.7264 189.768 197.281
90.7586 251.292 88.5578
89.5864 254.097 122.399
108.104 239.498 122.457
50.7175 256.417 109.067
72.4688 258.383 115.602
57.2596 265.33 70.9123
90.034 235.683 150.531
82.3015 249.846 139.249
77.6321 241.511 149.267
-47.4503 229.619 152.987
43.2439 230.442 150.493
1.50857 247.034 132.438
-97.6761 262.409 44.0906
-143.173 217.589 28.5408
-44.9127 261.327 36.0223
-74.1117 270.74 41.2438
-123.776 224.762 -60.158
-85.3164 256.738 -8.32881
-71.2809 255.582 -62.8185
130.042 202.717 17.9966
82.6643 260.189 40.0274
60.2542 249.912 -58.225
76.1193 253.945 -1.42782
124.948 206.276 -67.1331
61.8694 270.587 43.0658
38.5368 264.761 36.9357
-28.2935 195.053 -204.827
-4.24823 211.571 -183.345
19.0693 194.589 -204.978
-48.3 240.771 -114.073
-29.2389 229.415 -150.516
-75.8372 223.503 -148.971
63.5327 218.938 -145.842
18.3264 227.571 -149.826
36.262 239.03 -114.166
-3.22206 258.071 -12.6184
17.9494 256.717 -69.718
-30.242 256.913 -70.509
-239.121 192.299 -61.465
-191.088 193.244 -30.5947
-197.028 178.868 -54.8632
-237.724 192.229 -61.9362
-299.869 169.915 -80.3272
-273.508 188.012 -76.4469
-292.671 174.309 -81.4126
-42.1646 156.527 -224.681
-68.4169 182.895 -205.096
-172.929 148.567 -146.042
-107.034 162.682 -197.481
-115.635 140.225 -209.109
-93.1132 200.085 -174.965
-129.598 201.587 -139.032
-309.833 106.334 -82.6149
-302.107 122.237 -101.039
-282.994 81.1218 -103.482
-318.343 153.656 -91.0135
-314.05 138.369 -96.6821
-325.752 141.187 -84.5668
-258.812 112.015 -124.203
-284.269 130.396 -118.288
-266.413 131.752 -123.255
-234.722 165.815 -110.979
-254.335 157.027 -120.432
-282.82 172.467 -99.6759
-201.943 156.753 5.83321
-305.794 149.089 -73.093
-288.407 154.924 -60.2382
-213.777 141.212 4.94468
-222.074 109.856 19.5606
-284.105 41.9764 -59.4111
-315.347 111.096 -74.5332
-302.49 61.5718 -52.0058
-312.675 104.082 -72.0003
-285.131 -0.0723853 1.37467
-325.021 138.402 -83.5299
-326.51 140.99 -84.4951
-228.215 -32.8838 213.982
-231.875 -69.4333 224.8
-222.163 58.8999 106.468
-221.783 8.29343 180.986
-255.414 -74.2497 117.098
-234.994 -27.9763 149.306
-258.164 1.39857 30.8884
-299.625 135.002 -65.5335
-282.969 107.554 -46.0331
-271.893 107.319 -32.9573
114.869 226.284 128.995
127.084 204.481 72.371
87.9073 201.999 164.492
105.709 224.82 143.214
146.284 154.516 90.8453
115.632 209.91 133.163
116.768 145.936 162.261
9.18766 43.3234 352.857
22.9425 84.5852 291.449
104.413 46.1955 292.19
62.4171 68.6364 286.924
69.5956 19.524 331.816
54.1692 140.622 260.609
67.9575 162.948 229.663
193.504 -25.4825 246.759
181.571 -9.43084 262.848
182.595 -38.5316 278.692
164.498 50.7914 221.241
178.371 20.6046 246.355
180.617 30.6625 208.077
151.088 -11.6114 305.079
167.021 6.86151 276.653
148.977 18.2942 285.717
92.0261 147.929 218.142
117.653 67.3657 256.614
125.379 97.365 212.325
-28.8561 19.621 379.828
-10.1649 25.2278 374.678
-75.0785 1.45839 360.804
-44.8354 11.351 380.942
-10.0155 -11.5531 398.064
-29.9827 -1.76655 394.02
-28.6373 -16.8386 398.729
-213.491 -78.0874 278.984
-191.237 -55.5149 301.529
-136.973 -122.647 341.012
-171.115 -77.1866 324.963
-156.97 -163.803 319.94
-169.126 -36.5374 322.666
-141.927 -22.8278 333.84
-2.90017 -254.192 397.171
-51.8955 -237.065 397.73
-47.7211 -273.177 397.197
-29.8872 -81.5011 384.853
-45.1502 -164.823 394.907
-2.39732 -110.039 397.982
-94.1617 -250.683 383.444
-69.4234 -226.098 390.509
-80.9647 -198.527 375.483
-87.7812 -30.226 358.374
-89.579 -92.0132 365.056
-52.2326 -47.2171 390.481
-245.201 -107.051 201.57
-230.218 -96.1534 243.652
-260.841 -102.387 110.224
-257.335 -111.806 163.213
-230.762 -173.763 216.606
-254.533 -132.64 185.204
-243.986 -170.564 158.017
-274.463 -38.6425 -56.2839
-275.963 -47.1716 -33.5954
-250.331 -145.575 28.7095
-271.392 -92.7509 -12.1014
-240.542 -129.159 -16.112
-276.058 -60.0639 -2.78822
-273.351 -75.7691 43.7476
-196.564 -275.345 147.538
-220.201 -251.498 120.28
-199.203 -265.704 105.363
-246.758 -213.239 137.802
-236.528 -232.677 129.862
-220.105 -240.11 177.678
-228.858 -213.934 42.8162
-239.505 -225.169 96.9023
-245.379 -201.451 72.7995
-261.133 -140.336 93.9121
-258.355 -173.113 91.2577
-258.257 -180.666 118.358
-250.843 41.4689 -107.132
-257.529 -3.79994 -84.9489
-194.884 88.153 -127.744
-241.751 69.354 -123.1
-192.278 -88.7849 -114.273
-211.594 -14.6603 -116.273
-168.579 -59.6093 -140.624
-5.05418 145.564 -236.308
-35.5502 146.833 -232.259
-27.729 107.519 -211.855
-30.9995 146.592 -233.266
-6.20654 131.692 -222.392
-77.6106 147.063 -223.926
-115.606 140.22 -208.727
-127.373 -142.139 -71.1409
-151.794 -68.037 -101.168
4.40269 -121.108 -68.4799
-150.333 -78.4614 -146.867
-159.634 -91.9063 -140.014
-174.997 -119.026 -113.005
12.7022 78.0906 -229.749
-98.1983 -14.1868 -180.039
-45.9087 39.2061 -204.887
-110.748 86.697 -164.125
[...]
POINT_DATA 642
SCALARS Mean_Curvature double 1
LOOKUP_TABLE default
0.0303992
0.0352893
0.0250165
0.0234771
0.00243166
0.00415975
0.170166
0.00522243
0.00346526
0.0121366
0.00503639
0.0151085
-0.00190729
0.00299924
-0.0325598
-0.0214972
-0.00372027
0.00414548
-0.000985899
-0.0400365
0.0165126
0.022742
0.00542013
0.00112777
0.00126417
0.0275178
0.00423415
0.00777493
-0.0173743
0.0807156
-0.0805811
-0.0858897
0.00396696
-0.000532854
0.042218
0.0353545
-0.00552291
-0.00552916
-0.164777
0.00405984
0.0079527
0.0439825
0.0117992
0.0162579
0.0399543
0.0163277
0.0134977
0.00436468
0.0103418
0.0093863
0.0132267
0.0214537
-0.00420069
0.0193766
-0.00187433
0.00325459
0.0286608
0.0361006
8.35673e-05
-0.0109331
-0.0152851
0.0033394
0.0103693
0.00885104
0.0130404
-0.0111915
-0.0226816
-0.0316138
0.00457753
0.0492409
0.0464663
0.0222019
0.00793814
-0.0359859
-0.0974233
-0.00936447
0.000780964
-0.0042935
-0.00272267
0.00571119
0.0125938
0.0089701
0.0147208
0.015664
0.023328
0.014466
0.00617448
0.0128292
0.000645255
0.0286103
0.0254231
0.0102864
0.00632123
0.0217691
-0.000738497
0.0196247
0.0263834
-0.00231013
-0.00214524
-0.000624375
0.0493074
-0.0184162
-0.0453813
-0.0149491
-0.0139097
0.0057242
0.045334
-0.00173547
-0.00260696
0.00478731
0.0305357
-0.06947
0.01084
0.00601245
0.0175882
0.0119926
0.0130949
0.010236
0.0101719
0.0184659
0.0304388
-0.00737912
0.106845
0.0231016
0.0963283
0.0831062
-0.0433643
0.0234361
-0.0223214
0.567123
-0.00740782
-0.0177625
-0.0222431
0.0320601
-0.0169982
-0.016624
0.00197253
-0.019377
-1.67067
0.0264561
0.0140524
0.0194139
0.0220571
-0.0315236
0.0364726
0.00269066
0.00302219
0.0209017
0.0188086
0.0156651
0.0124036
0.0196354
0.024463
-1.15715
-0.107691
0.00843844
-0.00472254
0.304891
-0.0229639
-0.0118742
-0.0827947
0.00385446
0.0189195
0.0441362
0.0269429
-0.00892351
0.0183377
-0.00673017
0.0315699
0.0367435
0.0321744
0.0049369
0.00660958
0.0124775
0.0106866
0.0127044
0.0134261
0.00278531
0.0100473
0.00443833
-0.00018166
-0.010616
0.0184813
0.0215557
0.0233451
0.0242703
0.00347604
-0.00463203
0.00573203
0.00174831
-0.00553719
0.0053024
0.0338449
0.0134887
0.0174489
0.0285587
0.00924076
0.0232166
0.00144964
0.00584099
0.00854222
-0.000575993
0.0117591
0.0230928
0.0081886
-4.43469e-05
0.00709016
0.0365079
0.0252206
0.00202203
0.035335
0.0173916
0.0400391
0.0448847
0.0307898
-0.00278722
-0.00465574
0.0138645
0.0136098
-0.0055816
-0.00239097
0.0328696
0.0112275
0.0075085
0.0152536
-0.00161699
0.0166618
0.00929226
0.00743374
0.00413037
0.0395299
0.00338048
0.0158949
0.00737804
0.0195227
0.00481911
0.00684003
0.0129744
0.0103685
0.00548574
0.00599089
-0.00135423
0.00923315
0.00657247
-0.0527362
-0.0290485
-0.0301061
-0.0785309
0.129096
-0.131841
-0.007931
-0.000466773
0.0136971
0.0125602
0.00404757
0.0248847
0.0114685
0.0142241
0.0122818
0.00778589
0.0209367
0.0732917
0.0286329
0.232619
0.0069973
0.0181606
0.00936015
0.00404261
0.0332372
0.0280928
-0.00495274
0.0168426
0.0212255
0.00115446
-0.00770427
0.0121486
-0.0497584
-0.0822987
-0.138853
-0.0803699
0.0460047
-0.0562672
0.00562307
0.000868632
0.012727
0.0062935
0.000808664
-0.00225595
-0.00651114
0.0101189
0.000407647
0.00520156
0.037048
-0.00811993
0.0247218
0.028057
-0.00131188
0.00966889
-0.00407758
0.0213879
-0.00738863
0.00941322
-0.00776671
0.00117661
0.0130846
0.013973
0.0106366
0.00718476
0.00926808
0.0068133
0.0190825
0.00425547
0.0100751
0.0146236
0.00823452
0.00764386
-0.00265933
-0.00146344
0.0220217
0.00948748
0.00979539
0.0208587
0.023935
0.0280281
0.0186851
0.0134178
0.00553688
0.00300114
0.00895833
-0.00459002
0.0145858
0.00890662
0.000944666
0.0105589
0.00179532
-0.0220159
0.000625749
0.0236354
0.00473095
0.0151718
-0.00913888
-0.00553893
-0.00504441
0.0212168
0.00535415
0.00762499
0.00383073
0.0115454
0.00346277
0.0185162
-0.00909301
0.0267356
0.00605647
0.00209532
0.0193582
-0.00931878
0.000120165
0.0180458
0.0131429
0.0109492
0.0113668
0.01488
0.0126073
0.002747
0.0102894
0.0157702
0.00694562
0.00297789
0.0108123
0.013628
-0.000568525
0.0078496
0.00303812
0.0140178
0.00606835
0.00575774
0.00749321
0.063975
-0.0587099
-0.00902071
0.0770585
-0.012931
-0.38601
0.0428717
-0.00660558
-0.015905
-0.00724813
0.00600679
-0.0726346
0.19773
0.0212013
-0.0228562
0.00510912
-0.0122981
0.00256613
0.0007436
0.00583797
-0.00292179
0.00964121
0.0110339
0.0891633
-0.0032849
-0.0302343
-0.0155319
-0.0923833
0.0148993
0.237785
0.088752
-0.0870918
-0.0355182
0.0202854
0.0183956
-0.0144712
0.018605
0.036827
-0.00442315
-0.192912
0.0283888
0.0890156
0.0236452
0.0432818
0.0224955
0.00464926
0.01116
0.0164743
-0.000868568
0.019159
0.00809298
0.00709356
0.0156589
0.012144
0.0047984
0.00932177
-0.00393356
0.0118765
-0.00161539
-0.00525857
0.00848567
0.00565191
0.0052721
0.0174245
0.028909
0.00897778
0.0106185
0.022735
0.00786062
0.00315901
0.0297703
0.000460086
0.00825699
0.0143681
0.00362929
-0.0030408
-0.142997
0.0614092
0.0452025
0.0308418
-0.0765445
0.00293997
0.0182386
0.0227526
0.059175
0.0281286
0.00693172
0.0280088
0.0458554
-0.0247642
0.000681815
0.0280972
-0.00274619
0.00568291
-0.017819
0.0358362
0.0508014
0.148462
0.0188458
-0.0431238
-0.0141108
-0.581074
-0.0838667
-0.0114538
0.0561399
-0.588438
0.147613
-0.0474347
-0.00790454
0.0466516
-0.027456
-0.0539129
0.21112
0.0390199
-0.00745392
0.034188
-0.023643
0.0154993
-0.0395453
0.0192019
0.0492442
-0.0361682
0.034354
-0.0282732
-0.00239955
-0.00241962
-0.00725752
0.00890568
-0.000645281
-0.964043
0.0823937
0.00672066
-0.00394421
0.00936982
-0.0305203
-0.0204759
-0.22328
-0.232725
0.502442
-0.144469
0.830164
0.0242748
0.0108424
0.0142062
0.010099
0.00113031
0.00633844
-0.00640193
-0.00731085
0.0107948
-0.0710531
-0.00622939
-0.00407266
0.011174
0.00363761
0.0242985
0.0231188
0.0140554
-0.00682046
0.00391626
0.0124339
0.000521535
-0.071038
0.0183576
-0.0180706
0.00236331
0.0049579
-0.00374511
0.0252802
0.000993985
0.0111259
-0.00201946
0.0214979
-0.00985279
0.00731627
0.0163798
-0.00542995
-0.00172616
0.00302209
-0.014482
0.0151798
0.00616957
0.017036
0.00589516
0.00802748
0.0265138
0.0236234
0.0351162
0.00921622
-0.000943291
-0.000389202
0.00663993
-0.00163627
0.00800936
0.0120627
0.0108157
0.00958825
0.00389493
0.0231383
0.00907848
0.0292498
0.016232
0.0109533
0.00936331
0.00099134
0.00814952
-0.00542459
0.0169763
0.00940844
0.00617407
0.00797013
-0.0304219
0.31072
-0.010355
0.0623441
0.118429
0.014434
0.00446114
-0.00784513
0.103771
-1.53707
0.00851876
0.0281234
-0.000903857
0.00308991
0.00946886
-0.0338769
-0.00262855
-0.0880433
0.00331356
0.00432218
-0.00863708
0.00637492
-0.0258403
-0.0186639
0.0697076
-0.0178325
0.0263236
0.104206
0.0396439
-0.00297607
-0.317534
0.0649187
-0.017714
0.000295155
-0.00220102
-0.0164904
0.000499937
0.000176856
-0.000578453
0.00260771
0.00893331
-0.118553
0.115953
-0.71474
0.140598
-0.0869817
0.00121048
-0.00817088
0.00349324
0.0269855
0.0102781
-0.00337992
-0.00795904
0.0106338
SCALARS CoVolArea double 1
LOOKUP_TABLE default
1651.47
1541.64
1024.66
1286.43
1061
1218.89
1044.71
1086.04
1578.68
1054.77
1471.54
882.497
6754.44
1848.56
1232.93
991.373
2697.19
2885.1
3301.19
2226.03
175.119
2363.77
1897.03
5895.79
2631
1109.45
2038.39
2433.54
1475.5
807.594
131.026
1564.31
2133.21
2773.71
1083.96
1203.91
6425.08
854.625
412.683
1172.88
1993.94
1570.94
1299.8
1458.75
345.307
960.368
1991.27
1440.83
1416.32
2435.4
1504.69
1208.72
865.238
1240.94
3495.97
710.143
869.26
323.281
2084.4
3333.37
3085.14
1980.97
1518.67
1898.91
1474.96
1096.29
1793.63
765.563
2302.82
249.809
768.865
1017.66
1431.2
1813.17
798.615
4838.01
2240.4
1786.52
2054.48
1856.95
2262.33
1139.01
1601.36
807.752
958.861
441.017
2238.53
2354.52
3055.95
2571.16
734.783
1619.19
1816.62
1378.34
2081.94
1503.46
892.842
1641.15
4644.43
2448.42
181.812
2728.68
2353.02
974.798
17835.5
3588.09
781.777
1151.46
549.343
977.653
792.297
161.118
1344.05
1917.14
1409.65
1987.03
1694.84
1459.27
1492.26
1312.41
597.069
902.813
297.999
1387.37
544.55
1014.72
1217.82
1336.84
6912.18
182.103
267.956
8140.93
3492.54
8169.27
3668.53
690.739
1486
1106.11
32.1939
1110.08
1429.05
2034.92
856.684
1428.88
1374.48
2339.48
2533.45
2796.62
1552.29
1385.24
1881.63
1462.04
1615.44
50.0537
679.418
1518.98
5421.64
457.252
3328.43
5534.87
1129.64
1324.73
1991.12
495.603
632.189
3049.03
964.066
4304.99
538.713
443.083
1048.15
1037.9
1070.98
1165.59
1723.56
915.802
979.407
3306.02
1336.01
3032.43
1959.65
1906.26
1034.83
1331.11
1441.51
1091.92
1972.1
2668.55
2815.64
3162.73
3322.72
2731.23
528.933
1711.53
1223.71
335.788
1412.09
664.004
2413.58
1760.68
1754.75
1904.95
1676.84
1029.23
1820.93
2459.12
1895.17
582.303
814.11
2120.48
476.45
1026.53
466.063
287.9
820.642
3130.63
2639.45
2223.13
2689.15
3111.14
2325.75
1146.4
3490.12
2735.34
2443.43
2777.33
2314.92
2949.3
2942.66
3726.68
884.414
2051
1468.08
1551.95
1407.7
2008.47
1727.62
1832.09
1963.19
1682.27
2205.02
2992.58
2511.51
2458.64
1156.59
3320.55
4106.49
1262.12
308.262
107.59
305.401
1107.73
1555.16
2936.22
2079.35
1138.87
1948.42
3510.18
1016.42
775.5
1519.3
535.018
369.348
90.9668
1285.96
494.411
1616.77
2783.52
1591.97
1037.69
3342.73
349.855
1418.34
2530.76
5823.45
1589.98
475.396
2438.75
626.392
1632.08
55.4885
158.237
2085.8
1396.28
5030.5
3202.41
3353.11
5159.12
6196.75
536.463
3168.09
2155.33
654.084
1517.27
1146.09
495.18
5555.91
1811.07
3959.95
1079.27
1945.76
2542.81
2812.55
2316.25
1542.63
1400.97
1126.4
829.874
846.65
2636.72
871.076
2273.09
924.546
822.664
1531.39
2675.08
2745.86
2972.17
494.715
605.58
1454.3
679.572
408.029
360.998
846.763
1334.09
1285.68
3967.07
1999.18
2737.61
1042.42
1540.91
1937.02
1853.05
1253.23
2090.76
2457.67
2339.44
987.725
1238.92
3362.69
2417.31
4048.97
2307.13
1287.76
1372.81
2080.53
1390.53
2252.29
1543.53
2084.26
1726.24
1604.24
2602.94
1663.88
1943.61
2041.16
2038.8
1382.12
1152.56
1306.93
1482.18
1037.83
1723.3
1484.21
1110.16
1716.93
1941.03
1759.51
1305.24
2020.47
2092.77
3833
2295.51
2124.62
2800.28
2303.61
481.59
165.857
2049.8
632.599
918.677
185.178
2067.1
3782
10994.1
12972.6
722.586
1528.27
390.911
5587.41
6290.56
1494.27
6006.16
3747.43
3657.55
1550.64
1092.55
2649.76
2321.16
1256.47
2697.73
3900.15
2307.43
1049.13
210.083
144.556
298.873
1222.04
2231.68
1240.21
590.832
911.859
1475.88
529.509
722.505
70.272
408.475
435.804
1824.98
819.893
2231.34
1478.89
1560.44
1621.72
2205.86
1573.77
1468.75
790.049
1329.13
1340.65
1243.84
1947.19
1527
1974.41
2308.81
2826.37
1754.91
1846.6
2124.39
1133.29
1062.74
1083.41
1524.3
1319.1
1521.06
1169.96
703.996
1152.44
2261.56
1722.13
2013.72
1056.88
865.898
488.327
790.065
2824.81
837.725
3110.07
1084.37
1215.44
740.586
1150.73
1545.97
1227.99
838.007
1302.9
1189.31
1585.21
3688.89
1363.35
3061.2
805.667
583.19
354.635
304.452
274.509
1882.98
66.925
948.043
12011.4
1250.15
118.125
423.416
2101.5
949.998
591.048
2698.14
1047.71
319.358
2263.91
12533.8
3843.98
8456.09
3734.77
3018.04
5201.82
930.296
1418.55
5288.5
3062.75
16049.1
9272
9357.24
1216.45
1592.56
49.5178
353.342
1296.38
1225.86
1290.17
2939.85
1081.66
290.765
259.998
39.5037
474.182
61.2278
1602.11
1519.32
1561.79
1460.71
1474.04
1650.2
2431.82
1779.73
1355.18
296.261
704.628
1192.66
1210.74
1729.71
978.355
892.999
1262.12
1739.99
1488
1843.49
1267.2
920.823
1116.3
2285.59
1223.08
1684.74
1639.67
1058.02
2660.03
1498.12
2717.4
1665.59
2930.95
1698.76
1534.95
3286.98
1288.87
1964.45
1671.49
904.784
1355.71
751.412
1549.99
3152.13
588.593
948.542
429.184
995.043
1778.75
3513.2
2368.68
2901.53
1811.13
1504.44
1466.69
1789.22
2260.25
1126.96
1073.69
821.582
1444.17
1740.79
2034.96
2235.94
1899
2040.93
1654.67
2047.49
1756.74
2256.48
1438.52
242.766
743.483
504.947
202.387
1225.33
1506.22
1406.01
367.939
31.2468
1938.02
1192.99
1956.87
1698.97
1776.19
239.609
1233.49
618.78
1781.37
2912.66
3030.96
2326.12
3351.45
8811.18
887.235
4551.41
708.876
678.115
181.899
1933.18
117.482
629.655
2019.65
4317.31
4149.66
7367.31
2285.65
4573.73
4862.91
3457.29
4721.05
386.876
285.908
43.3283
453.235
2012.32
1950.88
5055.73
2619.86
933.198
447.065
3327.12
980.992
2804.41
SCALARS SignedDistance double 1
LOOKUP_TABLE default
27.0834
33.142
36.359
38.3584
22.6017
29.6117
172.643
20.1709
23.4125
26.2736
22.809
23.8976
28.5324
28.3227
35.3263
36.1364
25.2674
24.227
23.4535
32.3258
25.2754
26.609
25.6998
28.2766
24.3135
24.6468
28.8762
25.5427
72.965
64.5169
26.4622
78.6467
26.3366
26.6907
22.6218
22.377
90.8987
45.5257
46.2742
57.456
30.2606
25.9749
35.8509
32.759
19.7121
22.603
24.1689
26.9202
24.9266
26.6932
23.9895
23.655
26.2278
24.4423
32.1484
27.1498
23.8979
21.3888
24.9023
32.345
34.4115
25.5797
20.0017
22.7451
18.5538
38.9376
28.6914
31.7478
30.9799
37.7519
22.5337
24.4436
30.7389
33.6927
33.4642
33.3539
27.3178
32.1311
31.9032
25.7743
25.2336
27.1404
24.1131
23.4242
21.0399
23.5229
24.5313
22.9359
24.7039
23.611
23.1342
25.7344
25.6939
19.7854
33.8244
19.602
22.1018
23.6583
26.7667
26.4596
31.0152
26.6115
53.059
93.1577
127.156
35.8196
34.2452
24.4499
28.7368
22.1007
18.9166
39.4029
22.1121
22.5287
26.3024
23.9017
25.5004
26.8318
18.8726
23.9987
24.5306
28.8302
54.8974
15.016
32.9057
62.4218
29.2912
25.7047
50.6029
53.4847
59.7509
38.8369
35.8535
186.74
51.4178
43.5647
22.69
51.032
41.9468
21.3817
20.8318
26.8408
26.4427
47.3587
24.3218
27.4437
27.4018
24.3124
23.9325
24.7999
20.6183
22.6668
24.243
47.7951
47.0541
21.664
29.8941
87.5798
29.0222
42.1632
43.0417
31.026
34.1252
22.6298
20.7574
32.9439
27.0482
35.0934
24.3775
25.223
36.5121
25.7896
25.8131
24.1773
23.9006
23.9763
23.5642
27.3474
25.088
26.3915
40.2422
37.6152
26.4687
23.5757
24.1226
23.9254
26.06
31.9609
28.4393
27.9201
32.8865
25.8998
23.3886
23.1955
24.9073
22.8459
26.9151
25.4046
26.0338
40.3074
24.8952
33.7853
24.1284
24.4432
23.8984
33.9834
22.7547
20.945
23.4736
24.7011
25.1674
26.869
22.183
22.6265
24.5002
26.8111
27.4546
24.3259
21.8137
27.5563
27.1699
25.4096
23.6342
23.3926
22.2244
31.0901
23.3619
21.7544
22.652
29.6743
24.2941
28.5765
17.4606
20.9564
17.2921
22.0775
21.629
22.4487
20.4423
22.3625
21.0917
24.849
23.426
23.6345
54.5198
39.1191
31.1261
54.6309
25.3897
38.4882
25.4679
24.5603
18.0252
36.1392
19.5014
38.2367
18.7969
21.7729
26.6215
20.5362
20.8363
22.4001
23.731
37.7908
28.0201
21.9231
27.063
41.1979
32.0362
21.5093
30.1739
24.9475
25.5899
29.9488
33.791
27.3487
36.0809
40.7803
35.9253
44.8926
37.9599
37.5133
26.8122
27.5984
25.079
26.8725
29.3848
29.1841
31.6701
27.9687
31.0528
29.701
27.0914
33.2584
34.4587
26.7125
29.2889
29.4861
30.0501
26.4523
38.7973
27.5756
33.7862
27.9105
24.1662
24.8288
25.217
26.4247
27.3556
27.6985
25.2915
28.2766
24.6058
24.2396
25.6383
26.5926
31.8592
29.2345
24.5392
24.6667
28.1576
22.4665
23.5922
23.1562
24.2797
24.122
24.9682
29.7343
23.5134
26.4814
22.9108
25.1331
22.6974
23.2614
22.7225
31.4574
24.4267
30.4219
22.9118
24.8224
26.383
30.2058
31.9218
27.4738
26.9498
26.913
26.7845
26.9402
24.7773
25.076
30.9845
23.9516
25.6126
30.6284
23.3192
33.3832
25.7148
29.5728
25.1954
21.9468
28.9869
22.3407
23.2862
24.5237
21.2304
21.0619
23.383
27.0754
25.5873
32.911
25.6615
23.1303
33.9675
33.1352
36.7531
28.8844
48.831
30.9295
31.2806
48.6285
30.1422
30.5655
33.1913
38.5102
80.1711
43.1821
167.887
74.2669
72.8447
59.7641
84.0932
109.139
117.531
66.3728
112.185
69.6188
19.8859
25.588
28.9318
18.8578
57.4167
26.5036
42.069
28.8054
43.4539
24.5097
27.8215
26.2566
43.4397
34.2573
21.8204
21.4842
37.3352
28.0552
21.2965
33.3717
37.708
28.8793
28.5064
35.6814
18.8268
27.4162
22.2854
22.1681
36.2572
24.7491
21.1656
23.62
23.6807
20.6106
22.8218
26.1349
25.3958
28.2269
23.4252
27.4575
30.4749
24.1485
24.9466
24.6086
21.5897
20.5403
22.9245
22.3849
16.2784
19.5091
24.6371
23.086
26.5041
24.4227
23.0242
23.4129
43.432
57.569
30.082
27.8642
47.1187
37.046
42.2327
22.6008
16.4052
33.6018
17.1781
18.5134
16.7834
30.3413
46.3509
40.9695
38.0019
50.8554
35.4566
43.8119
25.907
32.2353
29.838
29.1804
29.8674
27.8572
54.9805
52.5656
46.4908
57.2492
47.597
53.2186
48.7817
57.3629
66.3025
33.8868
62.3123
50.7122
68.5402
74.0652
85.6154
175.104
118.007
36.5516
77.6345
46.243
30.5256
93.3798
55.2446
173.586
110.255
87.8821
44.5805
25.3471
46.5131
47.7397
24.7275
27.9258
20.5502
48.7981
31.5119
42.3792
41.5771
55.7726
42.4202
44.1623
24.4716
23.2602
23.92
26.023
32.7333
35.1577
24.0285
33.6422
26.3628
43.6879
39.4838
25.285
22.9041
26.8303
21.3342
21.7874
24.9645
31.2688
26.2057
26.331
26.2735
39.6094
23.9369
34.7932
27.7921
26.5214
33.3502
27.4333
29.7375
27.1536
29.3815
27.584
32.0331
28.152
25.2626
25.6906
26.0248
25.8806
34.6848
23.9033
25.4165
23.7802
24.773
27.1159
23.1063
23.1041
21.748
24.5154
26.888
33.8265
27.4408
32.9983
22.3542
20.1243
22.2935
22.6271
23.4567
21.8136
24.6518
24.81
16.5564
18.867
22.112
24.7826
25.3186
27.4674
23.9296
21.024
23.4493
21.4855
39.9396
48.7773
46.2007
49.2454
50.1951
52.4243
20.6941
31.4208
51.0027
46.4389
24.4846
43.8278
23.175
31.7646
22.9737
48.1118
31.8203
47.5135
22.6404
36.6726
31.7283
29.5995
66.8656
34.8479
116.757
92.3821
64.8889
66.3619
34.9863
57.1467
33.2172
33.8274
49.3039
69.6534
117.424
52.5476
29.459
30.5533
29.0598
27.4458
28.3032
40.0773
38.2967
39.9957
34.4601
49.1725
30.791
34.5848
30.5979
26.6959
25.649
29.3842
28.6524
28.8586
