# vtk DataFile Version 4.2
vtk output
ASCII
DATASET POLYDATA
POINTS 642 double
-216.821 323.241 91.2346
208.425 312.867 83.1174
-225.539 -383.638 115.52
214.797 -377.768 118.695
-3.38692 -308.699 501.123
-4.33508 142.124 438.324
0.753058 -245.83 -176.38
-1.84 217.383 -303.278
358.885 11.4373 -128.621
312.784 -46.5656 308.984
-373.645 12.957 -132.408
-330.706 -48.1881 312.44
-287.449 167.386 193.552
-189.629 65.8102 418.459
-125.357 295.023 266.524
115.305 292.115 264.632
-0.429539 377.657 82.0943
133.48 314.893 -139.654
-135.875 320.715 -142.551
-234.317 118.311 -254.085
-397.126 208.818 -65.0511
-394.974 -32.3627 68.5357
184.249 62.3027 411.155
278.745 152.107 192.336
-194.267 -212.12 449.91
-1.99876 -40.7038 515.53
-329.183 -238.716 -24.7762
-327.455 -254.635 231.483
-4.36183 29.7536 -320.779
-208.749 -149.791 -218.085
378.866 201.623 -61.7946
228.729 118.825 -254.629
312.998 -250.044 226.885
182.119 -209.974 442.953
126.859 -419.41 346.72
-132.071 -423.151 350.82
-2.67024 -430.589 174.329
-153.092 -335.37 -87.9389
144.956 -335.461 -88.0822
204.609 -150.378 -211.456
318.83 -233.275 -26.5346
383.978 -30.1388 63.9529
-268.764 262.183 138.728
-217.339 258.173 235.952
-174.199 331.086 188.864
-272.242 14.4345 376.171
-259.352 108.136 326.63
-323.245 48.1233 273.754
-64.7695 230.913 357.668
-151.196 189.604 353.73
-87.8282 111.025 448.764
-83.7263 359.466 187.05
-111.918 373.731 92.1378
57.1754 229.833 355.355
-0.668879 296.165 280.514
104.722 372.029 88.7144
74.5927 358.619 187.578
162.459 324.726 186.711
-69.6789 373.3 -27.0049
-203.409 319.82 -36.2854
197.041 315.083 -32.1778
65.0772 371.699 -24.0535
-71.7843 285.698 -237.395
-2.67384 342.755 -156.36
65.6987 283.574 -235.833
-298.196 279.337 -104.546
-330.324 265.132 -29.1954
-113.712 174.522 -304.381
-200.802 237.31 -214.351
-415.069 115.877 -111.365
-344.491 173.686 -181.944
-330.801 82.1649 -206.06
-375.33 191.886 26.2406
-402.019 10.463 -43.7598
-423.509 117.771 -28.8351
-361.144 82.0947 105.019
-368.839 -58.4864 207.943
201.003 250.536 233.707
255.581 254.114 124.358
79.2816 109.413 442.691
143.802 185.183 349.571
307.973 48.4577 270.598
249.93 104.115 321.353
261.085 11.208 370.964
-91.2159 24.3454 493.321
-4.35221 59.5819 495.628
-276.51 -118.057 383.127
-209.3 -43.9431 441.938
-1.6997 -194.945 508.85
-102.601 -137.245 498.805
-115.398 -260.038 497.827
-379.104 -152.982 162.484
-342.975 -152.447 276.938
-359.725 -128.74 -83.0813
-382.693 -136.735 27.1772
-289.643 -334.439 175.121
-352.159 -259.269 104.394
-290.569 -320.287 46.5852
-232.46 0.677302 -243.895
-299.982 -79.2821 -181.863
-2.30496 111.115 -346.91
-101.878 89.373 -320.917
-144.727 -189.805 -216.562
-122.448 -63.6816 -272.363
4.09281 -63.9891 -242.159
193.283 228.708 -208.911
108.53 172.005 -301.232
314.583 260.458 -23.9755
284.524 275.255 -102.004
320.516 75.7505 -201.448
330.251 170.098 -175.105
394.946 108.159 -105.494
277.221 -327.299 174.996
227.209 -345.706 300.361
165.905 -411.412 250.52
266.308 -109.857 376.591
263.107 -232.848 352.028
327.988 -149.486 270.102
63.6354 -381.091 443.226
169.763 -318.784 423.574
107.962 -258.528 493.655
59.5763 -462.366 265.064
111.445 -422.552 138.683
-69.6761 -383.909 446.757
-2.65414 -455.46 367.264
-117.66 -423.887 141.448
-64.5905 -465.407 265.36
-174.418 -417.661 251.484
114.758 -376.475 22.3411
178.862 -366.742 3.40745
-184.653 -373.71 5.36887
-120.347 -375.078 23.363
117.799 -277.945 -147.609
0.755113 -289.107 -81.3605
-122.286 -276.583 -147.369
239.378 -302.219 -66.2938
279.783 -313.348 43.4015
131.489 -190.757 -217.224
175.53 -259.081 -165.878
350.428 -126.327 -80.096
278.032 -198.809 -133.375
293.84 -78.8175 -176.594
336.336 -253.789 103.311
387.55 4.54701 -38.109
373.301 -130.935 17.6187
358.953 -151.657 164.897
350.259 -59.2044 202.104
94.1927 -136.773 496.552
203.152 -44.4738 436.775
82.6696 22.8982 486.842
-240.168 -350.918 304.828
-179.412 -322.281 428.143
-277.254 -234.959 359.814
-179.897 -262.263 -170.715
-245.578 -305.647 -67.6207
-285.472 -200.768 -136.885
229.325 4.09005 -234.235
112.138 -69.2955 -271.392
95.3039 93.4829 -318.288
345.423 72.7167 102.659
400.344 110.05 -28.5164
355.263 188.361 25.9584
-246.508 295.873 114.647
-221.492 303.537 171.34
-194.176 334.141 145.848
-251.969 222.08 218.284
-241.706 266.36 195.53
-281.021 227.588 158.033
-151.494 319.576 227.143
-199.23 297.46 214.736
-173.729 282.127 253.027
-304.078 -16.1566 346.61
-302.5 32.1311 327.235
-330.177 0.924083 294.85
-231.736 87.0383 374.26
-268.237 62.3558 354.79
-236.008 41.2168 398.772
-311.048 95.8438 244.397
-293.806 79.9623 303.127
-276.318 133.482 269.717
-33.2266 185.91 395.431
-74.5002 168.934 402.269
-47.0392 128.284 448.405
-135.844 246.588 312.944
-107.856 215.455 357.633
-93.979 262.265 316.832
-135.531 89.5401 437.227
-121.906 147.228 398.578
-171.679 121.216 390.949
-233.058 184.126 276.799
-206.318 149.264 341.027
-183.93 225.763 295.029
-149.337 357.865 146.125
-164.31 354.915 96.0386
-108.601 334.885 226.134
-128.109 350.664 190.585
-68.7358 384.496 85.3496
-100.323 371.791 142.348
-49.2833 371.729 136.41
25.8891 186.238 394.739
-3.03674 230.98 359.272
64.4707 297.358 274.966
31.7978 264.63 323.419
85.5366 260.475 313.662
-37.5698 264.142 324.408
-72.4818 297.001 277.841
151.71 349.683 91.0968
138.583 352.722 143.354
182.108 326.441 143.485
44.5209 373.575 136.909
90.467 369.742 140.06
63.9658 383.393 85.6507
140.466 314.706 224.795
118.17 346.423 189.578
97.631 332.528 225.333
-44.2944 332.411 229.241
40.8492 334.356 230.574
0.189965 355.977 186.276
-145.412 361.347 35.4086
-210.856 320.966 23.2964
-41.642 384.682 30.2025
-91.252 380.418 34.3213
-170.728 323.391 -88.8075
-122.585 358.751 -27.8535
-100.565 354.209 -87.8684
205.578 315.242 18.5561
138.961 358.353 33.5819
95.0368 349.576 -85.4743
119.953 355.607 -23.8652
169.596 315.376 -88.4949
87.2733 378.533 36.245
37.9107 385.768 31.0954
-36.9203 255.279 -274.683
-2.05753 288.934 -242.34
32.3799 254.55 -274.115
-67.4133 336.831 -152.754
-36.8864 317.908 -199.179
-103.961 308.025 -193.491
97.1712 304.335 -190.976
31.7467 317.018 -198.843
61.2882 334.143 -152.152
-3.01426 375.789 -28.5659
30.565 361.6 -94.6341
-37.0391 363.25 -94.9473
-281.373 296.127 -40.56
-270.769 278.152 13.32
-225.82 286.897 -116.686
-266.661 303.647 -73.9216
-365.615 243.54 -44.1886
-320.208 281.505 -60.9047
-352.39 252.18 -85.5878
-58.0343 199.036 -308.074
-93.7496 236.039 -276.877
-221.062 177.459 -239.247
-150.359 209.868 -268.749
-167.196 145.539 -292.741
-129.338 265.665 -234.879
-171.475 282.681 -184.147
-397.101 75.9987 -125.998
-377.713 100.7 -165.291
-358.636 51.023 -172.699
-377.041 194.88 -124.692
-387.618 143.379 -152.331
-416.164 157.884 -89.1438
-297.616 103.959 -230.539
-345.491 126.089 -202.043
-306.741 148.053 -222.311
-262.218 259.785 -165.743
-288.649 210.462 -198.53
-324.406 234.181 -148.678
-297.945 249.811 46.2799
-389.739 204.318 -19.8508
-359.507 229.543 -0.633335
-318.97 215.315 69.3365
-329.965 179.092 87.6641
-393.56 12.178 -87.164
-418.884 80.1164 -77.0042
-406.016 71.196 1.15486
-419.537 83.4748 -38.7464
-399.944 -3.68782 10.4278
-432.875 119.38 -62.354
-424.059 153.754 -44.7594
-348.929 -0.979496 246.247
-352.752 -51.4607 263.287
-333.466 113.115 149.828
-340.824 52.636 213.229
-381.533 -53.1444 142.341
-363.21 3.15076 177.39
-380.709 28.2442 78.9876
-408.01 153.44 1.73232
-402.216 113.913 21.6165
-381.635 145.769 49.1884
207.237 295.813 167.549
237.828 285.132 103.502
161.239 276.429 250.155
185.525 291.248 210.962
265.733 212.852 145.078
223.965 261.205 190.213
234.202 207.716 217.213
37.7464 127.635 445.27
66.7892 168.741 398.572
165.474 118.762 384.499
115.626 146.166 392.737
129.634 87.4359 428.695
100.412 212.703 353.976
126.718 242.372 310.01
312.669 2.45959 291.999
289.078 30.4583 322.464
289.666 -15.6383 343.153
267.283 124.421 269.269
282.046 77.9145 298.084
297.718 91.7928 243.827
226.815 37.0795 393.069
257.568 59.4198 348.735
222.778 83.8027 367.992
174.109 218.301 293.165
198.354 144.444 337.023
222.239 173.602 278.548
-47.7608 87.867 478.303
-4.62171 101.207 472.149
-137.497 46.6798 460.188
-91.3127 67.8387 475.549
-4.2589 15.011 510.638
-49.4444 41.8977 500.141
-49.2209 -3.7858 511.377
-310.621 -75.9213 348.194
-280.559 -44.37 381.75
-203.825 -126.819 441.205
-246.876 -79.2735 415.189
-238.305 -166.965 412.392
-244.12 -13.7353 411.907
-203.157 13.3231 433.554
-2.04147 -257.075 507.13
-63.0111 -236.683 507.876
-58.4874 -287.453 502.031
-50.1257 -81.8748 510.543
-58.5989 -164.583 507.714
-0.902389 -109.096 515.634
-156.15 -239.523 480.163
-112.085 -214.366 498.833
-145.719 -188.317 476.909
-149.147 -10.2688 469.113
-151.394 -87.6713 474.111
-95.7398 -42.3554 499.361
-363.671 -101.415 241.809
-341.369 -97.7076 294.944
-386.267 -101.432 125.839
-381.23 -104.464 187.74
-336.891 -205.648 257.388
-366.076 -150.623 219.195
-359.264 -203.8 193.206
-367.045 -64.6419 -107.249
-386.275 -68.4993 -60.2557
-359.77 -188.666 1.35693
-377.643 -131.889 -34.6193
-344.792 -182.542 -57.242
-395.789 -77.5919 -9.5458
-396.248 -89.2328 49.911
-260.585 -362.825 145.484
-296.818 -331.734 108.568
-261.649 -354.951 81.2763
-346.258 -259.955 161.062
-326.635 -297.822 135.919
-312.005 -297.541 203.756
-313.113 -281.604 10.0752
-325.601 -292.892 76.3049
-344.428 -252.97 45.009
-385.424 -154.378 95.8325
-372.368 -205.836 72.7104
-373.733 -210.553 130.349
-318.034 10.478 -195.268
-337.626 -33.0375 -159.716
-239.577 76.1224 -252.842
-289.333 47.8236 -226.448
-254.733 -118.717 -202.013
-271.563 -39.2538 -213.386
-220.028 -82.714 -234.874
-2.07291 159.89 -330.739
-56.7718 140.729 -334.141
-46.0369 59.8273 -326.898
-52.0948 97.9584 -338.362
-2.98438 77.1623 -336.947
-114.472 121.498 -324.258
-163.164 107.9 -300.525
-110.371 -202.625 -201.301
-107.019 -145.514 -229.229
1.80904 -154.91 -203.331
-165.03 -116.344 -249.896
-139.327 -132.088 -242.835
-167.291 -176.184 -226.836
-2.60222 -2.36564 -298.71
-90.8554 -55.6283 -267.956
-52.0181 -3.44334 -300.283
-160.712 54.4638 -278.02
-98.7306 13.9471 -296.72
[...]
POINT_DATA 642
SCALARS Mean_Curvature double 1
LOOKUP_TABLE default
0.00613215
0.00389696
0.0067649
0.00595967
0.01137
0.00474577
-0.0317116
0.00743638
0.00240733
0.00637606
0.0042091
0.00635809
-0.00232976
0.00391253
0.00404722
0.004791
-0.00256745
0.00384258
0.00400499
0.0026048
0.0145319
0.00625755
0.00430673
-0.000116346
0.00355665
0.00503839
0.0046801
0.00349813
0.01065
0.003108
0.015195
0.00844742
0.00373416
0.00305122
0.00533037
0.00525367
-0.00166441
0.0155952
0.0178578
0.00399911
0.0050624
0.00843992
0.00597826
0.00561929
0.00828819
0.00612132
0.00483542
0.00497359
0.00680689
0.00414753
0.00582907
0.00843221
0.00370951
0.00651025
0.000463607
0.00541346
0.00948162
0.00825124
0.00411896
-0.00134731
-0.00109019
0.00374446
0.00634357
0.00635097
0.00637315
0.00790932
0.00550367
0.00471855
0.00183352
0.0134815
0.00713996
0.00487422
0.00865109
0.00269231
0.0105683
-0.00139891
0.00201307
0.0049803
0.0052581
0.00436858
0.00403043
0.00593883
0.00515584
0.00604007
0.0079678
0.0076656
0.0027673
0.00536737
0.000775695
0.00479518
0.0119076
0.0040539
0.00425006
0.00580944
0.00140681
0.00499417
0.00736102
0.00444973
0.00117928
0.00439801
0.0183099
0.00423981
0.0042415
0.0138819
-0.00748167
-0.000638896
0.00442068
0.00543333
0.00681721
0.00795748
0.00788104
0.010223
0.00475691
0.00416043
0.00213473
0.00455218
0.00626906
0.00479987
0.00625137
0.00705022
0.0118558
0.00718717
0.00919441
0.00741996
0.00741772
0.00824374
0.00806726
0.00387714
-0.00200663
0.00519751
0.00847559
-0.00246664
-0.00148143
-0.0167974
-0.00166108
0.00622807
0.00453246
0.0124718
0.00821315
0.00603693
0.00593953
0.00556067
0.00738845
0.00289079
0.00620639
0.00436411
0.00219525
0.00514149
0.00690436
0.00668443
0.00487123
0.00639084
0.00542691
0.0126748
0.0055266
0.00583453
-0.00026072
0.0170655
0.00379546
-0.00265366
0.00569788
0.00822953
0.00561288
0.00751459
0.00798531
0.00354309
0.00821053
0.00441243
0.00826087
0.00824201
0.00529577
0.00530725
0.00570991
0.00546806
0.00531516
0.00605576
0.0059838
0.00304098
0.00536795
0.00306246
0.00150822
0.00243485
0.00680692
0.00459042
0.00603686
0.00566162
0.00331883
0.000418287
0.0023873
0.00033814
0.00185167
0.00282634
0.00870853
0.00491779
0.00821915
0.00917936
0.00997299
0.00928043
0.00133246
0.00275858
0.00346974
0.00287843
0.00531659
0.00500478
0.00406863
0.00285086
0.00293237
0.00819679
0.00722086
0.0043392
0.0079023
0.00971207
0.00805711
0.00872024
0.00816263
0.0015132
0.0046359
0.00243082
0.00507275
0.00119655
0.0052771
0.0073673
0.00265904
0.00266288
0.00576662
0.00131999
0.00620414
0.00432694
0.00329838
-0.000958972
0.00729736
0.00731964
0.00650168
0.00609361
0.007067
0.00402472
0.00520282
0.00626092
0.00552564
0.00582115
0.00395431
0.0019301
0.00501056
0.00527474
0.00873591
-0.00483141
-0.00547514
0.0145045
0.0136691
0.0173895
0.0104435
0.00523574
0.00653246
-0.000667859
0.00513257
0.00752317
0.00579583
0.00425286
0.00438658
0.00834085
0.00621728
0.00592682
0.0118764
0.0103467
0.00799721
0.014148
0.00964382
0.00853213
0.00740562
0.00701569
0.000169485
0.00804508
0.00686554
0.00115015
-0.00311162
0.00312376
0.00872719
0.000905404
0.00807395
0.00124996
0.0250533
0.0152507
0.0044732
0.00494286
0.000729416
0.00302276
0.00189122
0.00107918
-0.00160272
0.0110631
0.00575041
0.0069005
0.0069264
0.00530677
0.00482207
0.0082466
-0.00145936
0.00757336
-0.000396915
0.00612201
0.00219568
0.00275228
0.000741668
0.0026595
0.00570232
0.00428357
0.00525759
0.00573773
0.00646222
0.00400252
0.00615364
0.00418533
0.00562463
0.00588835
0.00518893
0.00287996
0.00246053
0.00159062
0.00855839
0.00715068
0.00465468
0.0073336
0.00838649
0.00892749
0.00874332
0.00661003
0.00525898
0.000827412
0.00522969
0.000521871
0.00624644
0.0049825
0.00263613
0.00517188
0.00752647
0.00281335
0.00215151
0.00469288
0.0112562
0.00743618
-0.0011456
0.00276771
0.0020919
0.00485096
0.0054716
0.00545183
0.00172663
0.00909211
0.00304802
0.00471827
0.00316058
0.00446547
0.00476044
0.0013983
0.00722025
0.00311088
0.00613116
0.00584597
0.00528096
0.007335
0.00589733
0.00576442
0.00682576
0.00385581
0.00453524
0.00616769
0.00495447
0.00487593
0.00631687
0.00852948
0.00343827
0.002365
0.00353972
0.00478633
0.00325616
0.00181527
0.00366035
0.0050769
0.00844303
0.00385651
0.01288
0.00664005
0.0154952
0.0123825
0.000810446
8.67521e-05
-0.00444489
0.00985042
0.00567015
0.0165807
0.00282546
-0.00389835
0.00915967
-0.00447943
0.00170655
0.00582734
0.0061282
0.00545557
0.00290829
0.00545926
0.00830805
0.00519088
-0.00168787
-0.000739949
0.00871854
0.0114424
0.0164013
0.0121903
0.0101363
0.00626503
0.00580311
0.0113539
0.00682903
0.00922153
0.00992055
0.00962378
0.0122689
0.00844218
0.00598716
0.00807627
0.00680894
0.00744868
0.00418822
0.00624944
0.00435004
0.00400677
0.00493367
0.00472536
0.0116517
0.00399858
0.00766864
0.00485889
0.00374774
0.00410016
0.00531093
0.00285997
-7.45355e-05
0.00328247
0.0037546
0.00418562
0.00764299
0.00556278
0.00742587
0.00648687
0.00631728
0.00546406
0.00994006
0.00946715
0.00780887
0.00423553
0.0045398
0.00542486
0.00367422
0.0034306
0.0107765
0.00520477
0.00491452
0.00553449
0.00433161
0.00838637
0.00803242
0.00592987
0.00808673
0.00601949
0.0085321
0.00528859
0.00488099
0.00378248
0.00208461
0.00156833
0.00770812
0.00411538
0.00937848
0.00628587
0.00933697
0.0137771
0.0160412
0.00650951
0.0105487
0.00267428
-0.00198922
0.00802418
0.0147298
0.01502
0.00650833
0.00391012
0.0127804
0.00289261
0.0116052
0.0164621
0.00257695
-0.00163112
0.00839238
-0.0166372
0.00895765
-0.00129308
0.0157574
0.00818046
0.00357838
0.0155735
-0.00146952
-0.00788117
0.00634337
0.00601447
0.00383749
0.00535839
0.00570315
0.00467663
0.00458252
0.00579417
0.00641586
0.00132541
0.00668054
0.00569576
0.0140595
0.00918458
0.0150591
0.0149381
0.0053328
0.00560922
0.00351881
0.00532328
0.00404079
0.00381868
0.00217159
0.00382833
0.00619827
0.00480291
0.00580423
0.00617564
0.00651871
0.00386078
0.00650291
0.00663454
0.0054581
0.00168853
0.00542285
0.00685046
0.00666781
0.00264507
0.00776907
0.000909537
0.00647628
0.00266852
0.00321123
0.00686343
0.00173335
0.0067197
0.000241099
0.00643401
-0.0010764
0.00843331
0.00781228
-0.0018333
0.00628199
0.00223249
0.00683341
0.00666201
0.0054532
0.00676131
0.00542849
0.00241422
0.0083471
0.00851211
0.00897726
0.00624874
0.00285371
0.00287227
0.00388073
0.000655749
0.00426866
0.00686208
0.004913
0.00482046
0.00422031
0.00569667
0.00958556
0.00733468
0.00613898
0.00621306
0.00250037
0.00428494
0.00424579
0.00643729
0.00548566
0.00589435
0.00511878
0.00462703
0.00279623
0.0178106
0.0106616
0.0179439
0.006994
0.00289096
0.00600958
0.00496324
0.00345311
0.00859337
0.00519937
0.00518004
0.00406391
0.00413719
0.00530975
0.00424472
0.00597338
0.00481849
0.00297828
0.00363464
0.00236659
0.00494168
0.00422323
0.000474373
0.00717331
-0.00182745
0.0119761
0.0058034
0.00840524
0.0114463
0.0177765
0.0133946
0.00343739
0.00339043
-7.25963e-05
-0.00457169
0.00405227
0.00220687
2.51701e-05
0.00273258
0.000516948
0.0102661
0.014684
0.0222378
0.00842535
0.000964733
0.00336642
-0.00220058
0.00233618
0.00688648
0.0074322
0.00429762
0.00955501
0.00557666
SCALARS CoVolArea double 1
LOOKUP_TABLE default
3397.05
3435.37
2805.13
2751.36
2616.37
2443.32
4675.06
2883.48
3000.25
2249.35
3147.27
2239.23
6026.22
3337.9
2927.48
2852.73
3975.19
4376.46
4494.61
3849.46
2979.73
4584.09
3286.77
5821.21
3577.55
3168.34
3601.44
3893.05
2492.62
3362.17
2609.31
3314.99
3623.74
3702.5
3663.14
3834.01
4514.3
1706.59
1703.82
3343.39
3444.74
3721.81
3615.5
3196.99
2304.66
2648.69
3646.36
2932.19
3093.2
4010.11
2894.22
3102.57
2879.11
3048
4213.58
2703.02
2874.59
2248.09
3827
4730.39
4449.72
3948.53
3455.8
3831.65
3379.35
3505.08
2819.21
3588.57
5028.71
2413.1
3597.2
2789.53
2964.82
3797.77
1806.58
5671.77
3375.01
3284.18
3612.79
3035.43
3847.64
2641.42
3299.5
2455.95
2955.08
2215.31
3720.22
4048.76
4311.04
4469.45
2812.79
3406.41
3455.37
3331.08
3858.11
3476.43
2986.75
3114.55
5507.61
3855.15
2373.54
3334.51
1794.23
3121.14
8800.59
5220.16
3583.82
2400.11
3199.96
2564.81
3449.9
2436.65
3276.32
3775.3
3394.49
3568.3
3597.25
3123.73
3644.07
3547.25
2644.01
2896.36
3223.62
3619.27
3651.58
3180
2881.74
3505.1
4759.4
3050.98
2946.97
5290.53
2934.57
7112.77
3183.68
2998.73
3020.69
1721.78
2644.05
3050.94
3204.42
3658.41
2921.15
3575.42
3349.92
3614.03
3547.04
4412.22
3523.06
3191.96
3856.99
3790.12
3675.19
2549.88
3249.74
3339.47
5386.1
3321.12
3428.59
5715.57
1986.33
2688.07
3871.55
2687.7
2751.02
4046.02
2632.67
4147.4
2250.2
2282.52
3007.19
2651.24
2687.5
2704.76
3341.91
2606.34
2651.26
4432.52
2904.9
4382.75
3352.91
3313.73
2672.91
3345.08
3178.06
2884.33
3167.32
3644.71
3973.82
4752.24
4753.66
4454.04
2587.11
3576.03
2796.01
2225.65
2993.31
2549.35
3952.23
3327.77
3343.09
3360.72
3286.09
2838.31
3375.41
3652.11
3634.89
2620.4
2954.7
3764.46
2497.63
2797.16
2199.77
2244.62
2605.26
4252.54
3928.43
4281.1
4354.72
4713.87
3765.67
3155.33
4675.59
4424.13
4314.89
4372.68
3956.91
4578.25
4406.52
4657.39
2989.08
3719.03
3384.65
3470.49
3327.45
3940.1
3489.98
3640.36
3664.71
3439.11
4011.66
4493.23
4514.49
4429.95
3196.76
4399.33
4669.25
3250.41
2110.49
2106.41
3317.76
3568.59
3556.42
5293.95
4403.27
3784.69
3963.81
4766.33
2988.41
2635.3
3308.77
3947.85
3055.28
2803.06
2750.96
2560.93
3812.32
4799.58
4778.81
4252.71
4271.96
2459.02
2930.11
3832.12
5296.99
3687.91
2664.96
3596.05
2476.52
4083.36
1755.57
2268.45
3368.28
2833.43
6191.53
4685.67
4363.56
5349.25
5691.46
2392.8
3572.42
4082.32
2715.58
3589.11
2955.19
2202.33
4728.78
3047.1
4571.92
2714.06
3345.41
3815.66
3646.46
3301.14
3148.5
3304.63
2617.22
2471.08
2445.68
4055.14
2539.45
3778.66
2514.57
2490.92
3177.66
4298.81
4384.5
4526.89
2265.91
2239.92
3240.3
2425.18
2325.42
2229.65
2969.49
3106.82
3040.66
4927.84
3669.4
3810.83
2852.97
3327.19
3276.28
3388.31
3142.77
4045.59
4205.23
4102.18
2457.61
2981.51
4216.24
4273.96
5451.93
4412.86
2911.76
3051.03
3845.51
2985.89
3617.6
3238.78
3734.74
3900.11
3694.33
4049.55
3449.51
3364.46
3937.99
4155.24
3328.78
2973.97
2981.18
3421.81
2990.18
3510.12
3109.62
2880.63
3522.22
3876.97
3837.95
3518.83
3720.17
3941.87
4265.96
3739.13
3579.52
4230.86
4363.7
3385.09
3148.09
2916.16
2169.29
1976.28
2634.89
3356.67
4595.38
5914.35
9131.52
3178.32
2327.63
2113.13
4025.98
4732.9
3007.72
5773.66
4782.88
5342.73
3533.96
3517.72
4640.68
4120.69
3477.51
4372.92
4797.29
3742.67
2940.9
3144.78
2094.1
2032.71
3136.52
3986.33
2960.37
2529.06
2719.36
3558.44
2654.46
2608.53
2615.02
3047.89
3599.99
4574.67
4079.17
4651.36
3210.79
3584.61
3645.76
3898.16
3526.42
3229.51
2861.55
3276.92
3499.59
2869.37
3487.5
2914.74
3583.97
3652.81
4052.84
3336.55
3394.93
3770.28
3402.43
3565.53
3143.72
3783.75
3591.22
3677.51
2432.63
2964.27
3057.75
4314.69
3991.15
4163.11
3792.71
3627.18
3305.06
2976.11
3218.01
3204.81
3396.8
3320.3
3520.74
3915.11
3627.31
3688.32
3621.56
3907.52
3674.68
3818.68
3962.34
3332.12
3096.16
3287.99
3096.05
3022.27
3432.02
3406.39
3389.62
3049.18
3019.11
3334.5
6980.17
2648.2
2210.74
2148.95
2152.39
3195.16
2816.04
2409.68
2144.96
2138.58
2926.84
7331.94
3598.93
6022.63
3754.09
3363.93
4532.61
1540.57
1716.28
4712.07
3653.69
9926.72
7313.75
7028.87
3261.38
3067.4
2739.97
2925.77
2966.05
2948.36
3077.53
4181.15
1782.61
2924.81
1929.06
2352.47
1557.96
2236.29
3670.04
3414.51
3691.82
3261.45
3122.39
3135.88
3487.95
3265.84
3228.69
3389.17
3407.25
3417.33
2971.29
3436.74
2826.56
2839.47
3160.89
3559.17
3463.88
3720.5
3272.26
3419.81
2913.85
3681.61
2697.52
2936.02
3394.19
2839.4
3937.54
2979.36
3999.69
3818.99
4344.23
3622.4
3217.87
4228.25
2898.08
3928.69
3779.36
2672.29
3095.71
2496.36
3339.77
4613.56
2296.15
2977.14
2251.23
2569.26
3357.91
5206.27
4261.57
4595.84
3796.34
3736.18
3406.62
3680.53
4036.05
3599.08
3243.36
3188.89
3712.75
3956.05
3690.48
3919.94
3480.97
3455.8
3497.89
4326.03
4227.86
4421.49
1964.95
2098.63
1508.32
1697.88
2990.51
3415.83
3299
3221.65
3142.81
2746.1
3699.98
3429.12
3391.31
3265.94
3444.15
3488.14
3617.76
3629.93
3453.6
4409.15
4022.05
3404.27
3923.44
5091.77
3059.12
3921.55
2176.46
3435.31
3088.13
3134.89
2504.28
2047.85
3071.31
5825.49
5407.57
6060.62
3457.61
4912.32
5193.39
4544.77
5827.12
2484.88
2057.01
1742.81
2354.59
3232.83
3433.06
4991.39
3499.09
2530.72
2263.17
3701.39
2432.28
4109.66
SCALARS SignedDistance double 1
LOOKUP_TABLE default
147.106
160.016
145.994
147.857
128.98
163.476
250.277
118.223
145.361
161.021
141.489
153.113
167.99
157.943
159.263
161.862
148.189
138.35
133.62
157.463
132.702
159.055
161.198
172.361
146.944
144.088
145.455
143.146
182.294
157.395
142.25
160.872
150.475
151.864
120.806
117.347
199.779
185.705
182.611
156.045
150.326
163.178
160.38
163.163
145.494
152.954
161.04
160.611
159.263
161.579
158.901
151.565
142.561
159.501
160.723
143.977
150.074
151.49
143.538
149.29
156.897
141.723
120.709
129.891
123.037
131.523
148.891
123.116
132.079
131.884
112.65
134.572
163.501
153.101
159.206
169.179
158.932
170.47
174.656
163.116
165.081
166.297
165.038
158.317
148.239
149.391
146.647
148.43
138.946
141.32
136.581
151.499
147.698
143.206
152.077
137.132
140.897
144.177
152.744
145.326
152.12
156.786
187.722
186.375
218.843
138.528
125.542
155.282
131.095
140.631
117.108
135.671
144.37
139.487
139.81
152.405
148.088
155.894
112.216
131.123
140.401
154.796
177.626
108.406
112.482
181.231
160.288
139.21
186.67
164.429
171.914
193.131
185.978
237.571
192.774
149.181
147.79
181.997
166.203
146.933
147.787
148.49
148.373
157.81
155.748
162.589
166.44
144.246
152.087
153.816
132.761
123.623
139.496
175.184
147.74
144.609
153.831
184.456
155.45
176.229
162.893
169.578
152.877
148.681
141.623
171.096
158.8
170.325
151.764
153.19
159.276
153.025
156.601
156.854
158.196
156.756
154.369
164.259
160.365
165.155
166.006
164.923
160
158.096
158.271
156.974
159.914
164.957
163.694
165.836
164.338
162.062
139.428
140.024
154.457
145.909
148.175
144.81
148.203
166.133
160.678
162.022
158.858
159.948
159.03
160.593
146.006
143.64
149.334
149.615
142.632
146.532
155.871
147.969
153.886
159.354
162.36
153.135
139.833
152.5
149.575
138.065
140.368
138.307
133.332
163.044
143.675
136.518
141.733
147.144
138.537
147.285
117.964
121.081
118.643
130.07
125.956
125.638
128.902
127.167
131.768
146.374
134.468
134.727
159.379
162.039
148.609
156.221
142.226
145.667
126.028
120.336
118.471
136.301
122.656
135.563
121.888
130.162
132.705
129.298
136.683
107.838
117.719
121.814
140.077
130.604
130.291
141.225
128.548
115.421
169.369
147.31
153.953
173.217
173.131
144.685
145.152
162.35
156.388
157.158
152.992
145.218
159.934
156.607
165.625
163.406
161.208
163.964
167.768
158.717
169.425
174.064
157.386
168.934
164.585
160.242
176.718
167.258
175.343
162.46
166.574
166.255
167.177
163.503
161.444
162.232
163.724
161.937
159.076
169.468
164.92
170.014
159.095
161.571
162.653
166.689
167.903
170.72
152.805
155.547
155.745
152.885
144.679
146.61
142.774
149.964
150.256
147.836
147.412
150.82
150.386
153.228
135.479
136.897
129.948
148.245
139.818
146.619
144.927
145.99
147.846
152.275
150.606
148.109
155.143
151.044
156.051
157.329
146.353
147.681
148.72
139.451
142.692
150.316
145.181
147.547
149.005
154.968
139.145
140.653
144.847
141.824
138.886
139.847
143.845
141.886
143.794
155.111
147.379
144.589
144.931
141.891
160.839
146.837
149.201
145.634
151.541
123.779
136.5
168.714
156.846
161.741
147.266
153.382
197.862
195.733
233.105
175.388
185.508
181.655
195.324
194.961
200.765
163.222
189.667
164.335
121.221
121.838
139.157
125.735
144.771
128.168
145.811
170.839
160.671
133.315
149.264
148.673
151.18
154.796
141.95
135.402
141.206
130.792
129.393
142.934
135.044
122.548
116.149
135.954
117.507
123.789
144.506
141.418
144.702
145.774
140.978
146.895
139.374
137.651
133.613
156.828
154.44
161.847
148.438
154.268
152.682
152.863
153.496
150.15
115.556
118.181
128.562
123.998
118.98
115.222
149.012
133.862
144.744
142.683
141.814
136.663
152.375
156.328
137.381
146.419
184.391
164.835
174.579
112.798
106.076
116.103
105.28
111.498
107.923
117.857
161.677
156.387
143.084
179.22
169.831
189.611
133.025
146.835
136.654
146.996
149.38
163.633
172.326
154.843
193.712
184.175
177.523
183.496
187.384
155.818
178.572
189.874
187.252
182.349
186.375
201.742
201.691
236.173
216.706
186.92
201.239
185.255
188.177
211.567
192.352
236.106
218.203
207.597
150.758
148.379
158.991
153.216
148.971
148.174
147.144
187.325
185.119
157.931
176.681
170.379
181.453
177.788
143.83
147.09
144.748
148.626
149.013
151.541
153.914
150.177
149.681
153.67
150.687
148.116
145.635
151.359
147.262
145.29
148.875
148.994
147.463
156.903
153.504
159.197
149.501
158.279
164.313
164.884
156.111
155.955
169.595
165.011
166.674
158.938
163.859
156.464
141.36
150.563
149.967
141.508
151.765
155.067
156.863
155.155
151.911
150.901
155.52
146.304
150
157.649
159.869
151.41
155.846
153.618
138.749
127.077
133.03
137.539
139.619
116.661
140.288
125.122
114.414
117.809
146.825
143.544
148.408
152.618
141.459
128.479
135.541
135.913
191.256
182.952
185.699
184.702
164.31
149.755
143.93
145.659
153.699
165.857
143.538
147.825
146.075
144.966
144.655
154.504
145.608
149.869
147.45
152.914
150.762
147.253
155.784
188.056
202.99
190.597
182.573
167.832
138.2
157.699
149.044
157.531
167.86
156.407
185.528
160.559
167.713
171.746
171.662
171.609
172.871
152.578
154.304
158.003
160.259
169.349
176.153
178.399
177.789
161.313
154.555
172.915
165.758
177.964
