# vtk DataFile Version 4.2
vtk output
ASCII
DATASET POLYDATA
POINTS 642 double
-197.149 296.443 91.0312
187.449 284.707 80.9218
-210.104 -354.883 119.292
197.606 -348.748 123.101
-4.00554 -300.771 472.986
-5.39705 117.095 410.699
1.02941 -207.589 -152.864
-2.31847 203.349 -279.728
330.209 19.5461 -112.927
279.259 -49.5468 293.026
-346.382 21.6276 -116.533
-299.543 -52.0107 295.964
-254.725 151.442 179.989
-171.573 49.6652 391.178
-115.538 268.578 242.553
103.314 266.03 240.673
-0.145709 343.611 77.7443
122.854 287.428 -128.325
-124.8 294.107 -131.48
-218.506 113.895 -222.561
-373.91 192.903 -63.6204
-359.411 -34.9181 61.864
165.662 45.971 383.211
246.11 133.018 179.316
-173.749 -213.249 422.787
-2.49565 -41.7797 482.305
-301.605 -222.876 -14.0276
-298.622 -241.545 221.766
-5.28473 47.1462 -285.673
-194.482 -139.159 -190.095
352.892 185.556 -61.1732
213.197 113.286 -224.442
282.396 -236.777 216.703
159.95 -209.983 415.588
113.54 -398.068 335.999
-119.584 -401.772 340.522
-2.4247 -392.463 192.298
-158.943 -300.689 -65.8304
148.322 -301.309 -66.2348
188.721 -139.372 -181.594
289.915 -217.119 -16.7606
347.546 -31.6804 55.7082
-240.576 243.155 129.418
-193.578 239.729 215.087
-158.697 304.808 175.603
-246.95 5.05615 353.346
-234.537 88.4994 307.147
-291.066 34.659 260.856
-60.1931 206.44 330.622
-133.938 169.307 327.964
-75.3837 89.8247 421.834
-82.803 327.912 173.109
-102.76 342.161 90.5909
50.665 205.563 328.337
-0.839159 266.085 258.491
93.3671 340.679 86.5134
71.54 327.524 173.944
144.526 298.362 173.409
-65.0818 341.202 -21.2158
-192.063 288.723 -33.5848
184.288 282.679 -28.8541
59.3235 340.32 -17.5376
-66.6109 264.692 -219.803
-3.32623 315.26 -144.358
59.0537 262.369 -218.192
-288.047 255.523 -93.8224
-313.159 238.577 -40.7549
-104.77 163.531 -280.469
-189.605 220.407 -193.597
-388.822 118.049 -99.2172
-329.069 163.092 -164.838
-312.498 87.5984 -181.863
-349.187 174.492 7.47053
-368.02 17.3242 -40.6764
-389.344 119.921 -41.7694
-326.203 74.8001 90.5563
-333.428 -64.506 199.273
174.15 231.481 213.218
224.163 234.808 111.13
65.1951 88.5101 415.028
125.378 164.382 323.648
273.957 35.7534 258.065
224.105 84.2573 301.575
234.384 1.30171 347.976
-78.2571 16.0679 462.897
-5.62441 45.2077 464.328
-251.835 -115.677 359.844
-191.087 -46.5395 412.932
-1.94689 -194.129 476.546
-91.5819 -137.734 468.128
-105.659 -255.542 469.265
-345.106 -148.01 156.882
-312.303 -146.726 262.792
-331.987 -117.474 -69.1969
-349.231 -127.207 30.9889
-266.73 -312.849 171.469
-323.6 -243.534 105.969
-268.876 -296.437 55.1579
-218.089 5.72051 -213.073
-279.042 -70.574 -157.038
-3.09346 112.908 -314.323
-90.3893 100.496 -289.738
-154.574 -170.62 -179.774
-124.823 -47.7679 -234.923
5.64112 -39.8923 -204.468
181.291 211.727 -187.311
98.6669 160.767 -277.386
294.464 234.026 -34.9533
271.88 252.501 -92.3548
300.393 81.0007 -176.801
312.72 159.689 -157.867
368.417 108.818 -94.4572
252.297 -305.222 171.68
202.771 -326.955 290.66
148.353 -384.319 250.837
239.825 -106.385 353.566
235.455 -224.539 333.96
295.691 -144.195 255.188
55.5535 -364.804 424.804
150.376 -305.897 405.363
96.1217 -254.466 465.294
52.8523 -430.273 272.052
107.929 -386.028 149.372
-62.9775 -368.012 428.833
-3.52066 -434.776 356.814
-115.916 -386.768 153.639
-59.3471 -432.381 273.401
-157.808 -390.607 252.27
126.015 -338.459 37.5314
167.723 -336.342 13.378
-176.179 -341.4 17.0331
-130.076 -336.209 38.3615
127.703 -248.911 -118.939
1.14044 -243.106 -71.7428
-130.853 -247.284 -118.292
220.628 -277.823 -51.0972
256.697 -289.231 50.8932
136.572 -172.055 -180.999
165.913 -237.529 -140.11
321.717 -114.808 -66.1928
255.162 -184.04 -112.742
272.753 -69.9925 -151.199
305.836 -238.282 104.538
353.123 9.93324 -34.3676
339.279 -120.325 18.6701
322.043 -147.184 160.317
313.12 -65.0369 193.071
81.3958 -137.232 465.908
183.819 -47.3924 407.554
68.0157 14.5237 455.789
-217.464 -332.27 295.833
-162.166 -309.145 410.183
-251.511 -226.56 342.796
-173.701 -238.552 -143.221
-227.408 -281.536 -52.5164
-263.646 -185.959 -116.347
214.921 10.2325 -202.183
111.699 -55.5643 -234.075
82.9027 105.702 -287.67
309.557 63.5279 87.5092
365.114 109.504 -41.7311
326.534 171.588 7.03411
-222.16 272.202 110.139
-199.13 280.533 160.556
-176.225 307.638 139.709
-220.871 205.824 199.868
-215.023 248.248 179.879
-248.56 212.813 143.753
-139.108 294.145 207.118
-179.563 274.982 196.819
-156.855 259.664 230.123
-275.512 -22.6773 326.669
-273.339 20.5615 309.141
-298.18 -7.75646 280.07
-210.937 68.7884 350.373
-242.927 47.4233 333.629
-214.857 28.3568 373.096
-279.362 78.5578 232.381
-264.866 63.2995 287.024
-247.309 114.099 254.281
-30.9559 160.984 366.369
-65.4094 145.098 373.466
-41.6349 104.684 421.006
-121.11 223.376 289.028
-96.3201 193.47 330.827
-86.2876 235.824 293.29
-119.089 70.6787 410.079
-107.46 125.338 370.198
-154.255 100.79 364.462
-207.471 164.573 255.883
-184.613 128.249 317.634
-162.858 205.682 271.798
-137.74 328.424 140.061
-150.165 325.933 95.8522
-103.943 306.497 205.793
-119.742 321.55 177.065
-67.22 350.914 81.9105
-96.1611 339.631 135.317
-50.6462 338.361 128.385
22.077 161.68 365.83
-3.60207 206.012 331.741
59.9086 268.168 251.446
28.9609 236.629 299.704
75.8182 234.111 289.745
-36.1416 235.911 300.76
-69.7045 267.653 255.196
134.926 320.494 89.7151
124.443 323.359 137.211
161.951 299.594 137.095
45.0301 339.907 129.034
83.9156 338.297 133.082
61.1639 350.193 82.2494
125.524 289.339 204.829
107.005 317.366 176.163
90.4822 304.658 205.075
-44.5254 301.843 208.698
40.4433 303.516 209.568
0.612615 323.728 172.153
-132.125 332.238 38.2049
-192.818 291.433 24.378
-41.0313 350.966 32.085
-84.5383 349.588 36.9805
-158.826 294.917 -80.351
-111.646 329.266 -21.9904
-92.1631 325.871 -79.9258
187.055 284.116 18.5071
124.118 329.244 35.726
85.5093 320.746 -76.9529
107.991 326.069 -17.3163
158.871 285.256 -81.7954
78.9555 347.694 38.888
36.5604 352.945 32.9566
-34.4183 237.731 -253.922
-2.59809 267.3 -224.511
28.7143 236.958 -253.401
-61.9934 309.518 -140.933
-34.4787 292.958 -184.284
-95.9763 284.015 -179.456
87.9298 280.009 -176.709
28.0153 291.977 -183.94
54.4104 306.705 -140.472
-3.34782 342.615 -22.7789
26.899 331.848 -86.5425
-34.8532 333.383 -86.9509
-267.144 265.161 -48.4003
-248.902 248.662 3.88177
-216.684 256.476 -102.051
-257.545 273.501 -67.9077
-344.298 220.944 -50.2257
-304.461 253.916 -62.3758
-335.773 233.289 -79.372
-53.5049 186.247 -283.948
-86.435 220.441 -255.591
-208.68 166.155 -214.872
-138.232 195.983 -247.387
-153.361 138.705 -269.275
-119.167 246.679 -216.84
-160.119 259.579 -169.615
-371.206 83.8004 -112.108
-354.797 105 -146.725
-336.046 58.5398 -152.499
-359.237 182.292 -113.104
-367.693 138.518 -137.641
-394.979 150.506 -82.5639
-284.074 105.463 -202.188
-326.75 124.534 -179.169
-294.435 141.153 -197.662
-253.066 237.007 -150.265
-277.659 195.849 -177.936
-310.604 217.608 -134.588
-272.281 222.185 35.7696
-364.079 186.882 -30.7384
-337.884 206.767 -14.9423
-289.211 193.311 52.9876
-299.072 160.964 68.7657
-362.847 20.4603 -77.2617
-388.808 89.2232 -71.5374
-370.603 72.6042 -10.8708
-385.251 90.9534 -45.2796
-364.907 -1.16624 8.48536
-399.319 121.239 -62.4713
-394.806 145.2 -50.5706
-314.403 -9.79846 236.121
-318.808 -55.8203 251.329
-300.841 97.9183 136.479
-306.556 39.9064 203.422
-345.468 -58.1199 135.458
-327.137 -5.23038 169.124
-345.304 22.1162 66.5501
-377.516 145.065 -13.4966
-367.238 112.622 4.79289
-349.668 134.737 27.8108
182.311 272.795 156.274
211.736 260.295 96.0664
141.707 253.843 227.418
163.224 268.917 192.876
231.893 195.864 128.858
194.573 243.565 174.5
201.472 189.454 200.836
29.9964 104.391 417.426
55.9566 145.689 369.665
147.198 98.4191 357.541
100.206 124.794 363.971
112.583 68.8178 400.382
87.2134 190.549 327.046
110.288 218.95 285.95
278.418 -5.36806 277.63
258.327 19.1106 304.288
259.172 -21.8279 323.606
237.587 103.851 254.43
251.842 61.4333 281.759
264.324 74.4635 232.466
204.355 23.7114 367.155
231.013 44.4684 327.128
200.753 65.4612 343.66
151.543 197.264 270.456
175.639 122.994 313.654
195.054 152.226 259.159
-42.136 69.5361 448.885
-5.92762 80.5618 442.91
-120.503 34.2417 431.161
-78.4834 52.3343 446.746
-5.51948 7.83866 477.949
-43.7613 30.2942 468.887
-43.4092 -7.64166 479.029
-282.607 -75.8702 327.827
-255.034 -47.1898 358.22
-184.754 -125.812 412.851
-224.99 -78.6697 388.919
-215.407 -165.672 385.822
-222.135 -19.8335 385.648
-184.831 3.82925 404.863
-2.25299 -254.994 475.716
-60.1148 -235.632 476.44
-54.6538 -280.853 473.501
-44.3382 -81.7556 476.335
-54.5167 -164.292 475.545
-0.891053 -108.168 482.705
-138.885 -239.423 452.005
-100.985 -216.301 467.368
-128.347 -190.981 447.343
-132.548 -15.7105 438.168
-134.823 -88.4303 443.449
-83.6585 -44.0767 467.967
-329.803 -101.372 229.805
-310.098 -96.3606 279.441
-350.398 -100.848 121.636
-345.942 -104.985 180.4
-306.493 -196.013 245.581
-334.001 -144.563 208.967
-327.471 -193.869 183.849
-339.751 -56.9104 -91.9718
-355.6 -61.844 -50.8621
-328.577 -175.765 9.40924
-347.236 -120.908 -27.1081
-316.164 -168.081 -45.3959
-362.126 -72.058 -6.30491
-361.454 -85.2318 48.8783
-241.393 -337.077 145.597
-274.412 -308.392 111.27
-242.932 -328.313 87.9872
-317.565 -245.364 154.872
-300.779 -278.729 134.062
-285.695 -280.198 196.599
-288.344 -261.481 19.735
-300.214 -272.966 81.8434
-316.106 -237.239 52.7483
-350.15 -149.133 95.3231
-340.485 -195.21 77.5319
-342.897 -201.123 127.245
-297.772 18.7685 -170.09
-313.85 -24.7178 -138.808
-225.154 80.0107 -219.194
-273.534 53.9865 -197.852
-236.123 -109.002 -174.685
-253.957 -31.8972 -185.554
-204.102 -74.6967 -205.284
-2.61346 150.247 -306.014
-51.9062 134.532 -307.577
-39.9526 72.6373 -293.143
-45.3734 104.847 -305.222
-3.95199 89.6256 -303.145
-103.548 121.358 -294.647
-147.646 113.438 -270.827
-116.014 -183.943 -164.803
-115.434 -127.425 -191.483
2.53416 -140.88 -161.754
-159.372 -103.292 -215.121
-146.772 -114.674 -205.315
-165.362 -159.813 -190.91
-2.44793 24.0812 -265.168
-101.89 -31.2709 -236.401
-50.3231 15.9498 -264.305
-146.719 63.298 -245.045
[...]
POINT_DATA 642
SCALARS Mean_Curvature double 1
LOOKUP_TABLE default
0.0075182
0.00528989
0.00748251
0.00630001
0.0116501
0.00467454
0.0255059
0.00822348
0.00232243
0.00726355
0.00430248
0.00712072
-0.00253399
0.00406634
0.00353182
0.00510186
-0.00366165
0.00402897
0.00372752
0.000774476
0.0204335
0.00787056
0.00464036
0.000110907
0.00280634
0.00656472
0.00534923
0.00382391
0.0142775
0.00655429
0.0220421
0.0106158
0.00384429
0.00231042
0.00755643
0.00643718
-0.00330916
0.0138336
0.0253895
0.00399649
0.00601541
0.0104149
0.00893745
0.00683634
0.0104475
0.0072083
0.0055735
0.00535093
0.00803255
0.00490476
0.0065381
0.00982925
0.00364862
0.00796691
0.000260723
0.00540951
0.0121898
0.0104191
0.00389374
-0.00162472
-0.00170115
0.00402791
0.00741084
0.00722822
0.0074067
0.0109036
0.00429937
0.00578272
0.00231933
0.0147025
0.00981865
0.00563104
0.00990058
0.00262399
0.00486185
-0.0013298
0.00152798
0.0054494
0.00601095
0.00445933
0.00465712
0.00693855
0.0059783
0.00698989
0.00961202
0.00919811
0.00359824
0.00629495
0.000697225
0.00701667
0.0148339
0.00445486
0.0049426
0.00674563
0.0010107
0.00625573
0.00870727
0.00477166
0.00136065
0.00483072
0.0263985
0.00145744
-0.00629887
0.0237202
-0.00760562
-0.000294828
0.00588302
0.00486541
0.0112618
0.0082799
0.0102707
0.0166937
0.00552948
0.00454208
0.00257918
0.0054099
0.00770618
0.00580107
0.00695462
0.00871864
0.0156554
0.00829126
0.014636
0.00883273
0.0119851
0.0115998
0.00803892
0.00399488
-0.00402474
0.0134016
0.0188689
-0.00313608
-0.00323228
-0.0216187
-0.00227587
0.00667123
0.00510692
0.00874419
0.0171965
0.00717904
0.00704213
0.00669251
0.0091505
0.00413957
0.00818098
0.00409339
0.0021961
0.00680321
0.00825244
0.00772607
0.00555572
0.00764633
0.0074701
0.0264512
0.00536095
0.00685993
-0.00109042
0.00662219
0.000425779
-0.00294943
0.00106415
0.00913358
0.00655401
0.00949343
0.0101415
0.00202562
0.0103884
0.00338041
0.0102827
0.0100803
0.00599919
0.00590578
0.00644236
0.00617069
0.00603324
0.00702628
0.00695446
0.00301731
0.0060098
0.00344705
0.00115504
0.00236434
0.00826114
0.00569964
0.00746658
0.00745131
0.00308997
-0.000716915
0.00245493
0.000183442
0.00136136
0.00301205
0.0112757
0.00573396
0.00934795
0.012526
0.0111006
0.0118462
0.00103892
0.00316226
0.00370447
0.00237434
0.00625067
0.00638767
0.004383
0.00266026
0.00284486
0.0104821
0.00906133
0.00391321
0.0113558
0.011502
0.00987172
0.0111472
0.0103584
0.000596481
0.00352747
0.00326738
0.00601686
0.00152617
0.00523189
0.0102029
0.00385252
0.00280655
0.00706944
0.00123353
0.00763578
0.00479927
0.00348077
-0.000627923
0.00957058
0.00873142
0.00763291
0.00691453
0.00847914
0.00401674
0.00555804
0.00732783
0.00628409
0.00631823
0.00393296
0.000826075
0.005833
0.00598585
0.00825763
-0.00673937
-0.0103633
0.0219943
0.0146966
0.0239493
0.0175167
0.00533548
0.00770788
0.000358495
0.00536979
0.0134679
0.00669057
0.00548745
0.00519146
0.00742058
0.00774686
0.00710914
0.0184228
0.0219879
0.00873873
0.0161799
0.0125942
0.0104328
0.00841101
0.00866668
0.000210104
0.00811126
0.00773057
0.000774863
-0.00399483
0.00398188
0.0138631
-0.000384656
0.0103012
0.00274357
0.0328583
0.0215111
0.00471418
0.00534902
0.00155199
0.00335287
0.00174019
0.000736434
-0.00215942
0.0158664
0.00520589
0.00678316
0.00879358
0.00744913
0.00532007
0.010128
-0.00286554
0.0089156
-0.00174336
0.0072545
0.00204882
0.00290938
-0.00016507
0.00243693
0.00672636
0.00506321
0.0056725
0.00658649
0.00756265
0.00448197
0.00730969
0.00448859
0.00638256
0.00684995
0.00585446
0.00322971
0.0022163
0.00156039
0.0107138
0.0081556
0.00520699
0.00865072
0.0103523
0.0113697
0.0110745
0.00764917
0.00572757
0.00130498
0.00590765
-0.000826439
0.00732081
0.00564692
0.00142768
0.00538824
0.00840933
0.00125913
0.00257904
0.00614928
0.0108703
0.0075628
-0.00245974
0.00230452
0.00146657
0.00619899
0.00554176
0.00628181
0.00170954
0.0102108
0.00310464
0.0061225
0.002252
0.00584379
0.0062513
0.000882864
0.0090672
0.00273441
0.00672517
0.00731777
0.00624911
0.00858224
0.00619973
0.00647805
0.00820243
0.00432032
0.00510662
0.00715691
0.00550431
0.00445295
0.0071719
0.0116584
0.00291524
0.00311398
0.00237455
0.00552109
0.00274544
0.00212769
0.00395884
0.00801914
0.015133
0.00404187
0.0130045
0.00466185
0.0240701
0.0122624
0.00119748
-0.000498949
-0.0067573
0.0188697
-0.00284053
0.0304197
0.00146254
-0.00840395
0.0139337
-0.00585891
0.00370674
0.00971968
0.00704678
0.0056111
0.00390323
0.00609035
0.016792
0.00538578
-0.00371465
-0.00265447
0.0096563
0.0188626
0.020723
0.0118653
0.013149
0.0039813
0.00669972
0.0137554
0.00666392
0.0122194
0.012971
0.0107438
0.0227985
0.0105776
0.00813394
0.0107688
0.00794438
0.00881714
0.00483796
0.00760241
0.00431869
0.00415142
0.00618874
0.00524942
0.0125582
0.0046967
0.00918651
0.00529418
0.00453215
0.00366144
0.0061526
0.00214325
-0.000251412
0.00348239
0.00382971
0.00430952
0.00960181
0.00740199
0.00947154
0.00763201
0.0076108
0.00597532
0.0093418
0.0125997
0.00852449
0.00484268
0.0048
0.00538931
0.00621102
0.00698127
0.0152666
0.00455739
0.0030023
0.00851171
0.00376033
0.0112533
0.00978701
0.00783376
0.00943131
0.00655292
0.0101202
0.00619894
0.00936843
0.00663668
0.00216392
-0.000384547
0.0106508
0.00174453
0.0108793
0.00691286
0.0141288
0.0183304
0.0214434
0.00247494
0.0226798
0.00211891
-0.00234837
0.00111155
0.0266481
0.0187577
0.000260657
0.00736154
0.0212621
-0.00172734
0.00464657
0.0269162
-0.00380895
-0.00175344
0.00423053
-0.020099
0.00577273
-0.00357064
0.0221262
0.000617599
-0.00309609
0.0215353
-0.00238206
-0.00858045
0.00677547
0.00631757
0.0036565
0.00591055
0.0131956
0.00498799
0.00500972
0.00671875
0.00771839
0.00137802
0.00333324
0.00907259
0.0206686
0.0187172
0.0126476
0.028214
0.00672151
0.00636596
0.00493403
0.00604202
0.00420108
0.00407016
0.00118032
0.0042621
0.00728101
0.00564816
0.00623653
0.00711113
0.00759892
0.00428417
0.0077612
0.00817581
0.00636073
0.00218564
0.00671367
0.00788995
0.00727572
0.00500097
0.00996732
-0.000913758
0.00645119
0.00255866
0.00299338
0.00943971
0.00166078
0.00720378
-0.000221876
0.0078335
-0.00246249
0.0100135
0.00842883
-0.00274393
0.0049128
0.00315133
0.00709117
0.00782131
0.00603323
0.00797516
0.00609438
0.00297188
0.0101896
0.0108942
0.0113601
0.00693767
0.0024149
0.00291115
0.00434756
-0.000100764
0.0048515
0.0080673
0.00567872
0.00558527
0.00449205
0.00697098
0.010951
0.0114441
0.00711712
0.00724452
0.00319963
0.00441689
0.00392183
0.00556085
0.00755335
0.00655414
0.00523522
0.00509013
0.00100079
0.0320272
-0.00281972
0.0182168
0.0166544
0.00223235
0.0071517
0.00528257
0.00615108
0.0189376
0.00582289
0.00526032
0.00431512
0.00441875
0.00610311
0.00771318
0.006516
0.0049006
0.00274515
0.00364718
0.00246711
0.00515399
0.00534694
-0.00129981
0.00375818
-0.0251537
0.013926
0.0121717
0.0153051
0.00913351
0.0298257
0.0134223
0.00303808
0.00565308
0.000672251
-0.00550867
0.00427258
0.00226265
-0.000341402
0.00256525
0.00116537
0.0131801
0.0162605
0.0313419
0.0117095
-0.000880411
0.0038773
-0.00329463
0.00205536
0.00828943
0.00752845
0.00430702
0.0114822
0.00544369
SCALARS CoVolArea double 1
LOOKUP_TABLE default
2969.75
3002.98
2342.32
2333.77
2069.82
2056.75
3774.86
2398.39
2607.77
1841.67
2725.73
1793.83
6015.27
2851.19
2367.61
2295.61
3534.74
3886.65
4073.36
3159.18
2016.23
4001.77
2815.64
5784.47
3168.67
2521.07
3085.46
3404.54
1967
2623.88
1683.9
2492.74
3132.39
3319.82
2924.26
3126.67
4549.9
1040.11
959.986
2755.3
2942.32
3103.56
2991.33
2670.11
1655.52
2095.72
3135.57
2439.75
2564.91
3542.94
2410.27
2494.53
2259.64
2506.89
3874.17
2099.02
2211.21
1616.62
3261.2
4254.89
4039.34
3360.99
2852.55
3217.08
2780.6
2728.46
2415.38
2865.31
4418.92
1613.85
2772.6
2234
2413.47
3201.02
1230.03
5373.98
2957.84
2787.87
3053.02
2600.73
3376.39
2136.46
2764.7
1909
2306.13
1596.24
3235.11
3506.51
3941.85
3931.14
2092.63
2831.9
2954.27
2751.81
3310.03
2889.23
2316.52
2604.53
5155.66
3381.55
1509.36
2862.32
1473.33
2053.24
10801.6
4772.74
2833.84
1914.69
2366.5
1985.12
2677.45
1627.99
2692.59
3194.13
2863.96
3077.01
3008.85
2604.05
3006.82
2843.31
1929.6
2181.89
2355.97
2958.73
2781.63
2344.4
2150.58
2977.94
4868.99
2253.25
2081.94
5564.22
2790.69
7547.22
3098.72
2398.09
2492.92
1183.69
1782.91
2469.04
2610.37
3144.03
2261
2945.37
2758.76
3127.6
3184.16
3909.43
2910.23
2608.22
3248.87
3079.53
3055.04
1580.84
2630.8
2762.52
5179.3
2176.01
3029.41
5535.81
1459.72
2178.93
3354.1
2000.79
2091.99
3619.26
2037.96
3877.32
1667.35
1684.43
2435.05
2117.87
2150.19
2192.74
2820.58
2058.12
2111.61
4103.8
2396.91
3952.44
2923.69
2828.41
2153.32
2762.29
2638.78
2333.84
2757.64
3266.79
3573.08
4278.65
4294.19
3946.39
1927.76
3019
2211.87
1569.11
2446.26
1913.27
3480.62
2879.56
2860.83
2860.48
2790.69
2298.59
2898.05
3201.6
3130.1
1989.27
2330.88
3252.71
1846.11
2217.92
1624
1584.26
1988.67
3791.37
3407.53
3690.64
3876.42
4328.57
3225.91
2547.55
4300.39
3961.96
3766.69
3961.66
3464.22
4109.7
3982.28
4306.33
2358.96
3141.82
2786.62
2862.77
2725.81
3336.74
2918.2
3083.46
3138.67
2867.65
3452.94
3940.03
3897.34
3801.35
2638.3
4161.28
4318.65
2557.34
1369.26
1305.18
2366.06
2963.57
2965.1
4727.1
3871.78
3045.77
3377.56
4293
2439.56
1990.6
2797.26
3054.14
2214.51
1858.74
2179.8
1809.72
3070.91
4154.82
3991.61
3395.08
3929.51
1660.83
2430.68
3395.16
5207.7
3156.04
1973.7
3093.88
1847.35
3454.42
962.581
1367.11
2926.71
2340.85
5977.09
4288.45
4012.3
5161.76
5523.12
1649.32
3131.89
3517.39
2037.21
2959.23
2396.03
1625.41
4734.83
2581.16
4319.63
2206.58
2877.56
3394.2
3289.24
2931.32
2635.92
2749.64
2118.55
1926.95
1911.4
3616.81
2003.07
3334.56
1989.01
1950.1
2650.32
3778.23
3872.65
4031.4
1661.62
1680.74
2677.14
1847.16
1679.9
1584.53
2288.48
2559.67
2481.26
4595.06
3162.37
3444.13
2277.66
2757.99
2788.09
2874.06
2487.09
3444.98
3725.71
3588.66
1871.61
2429.21
3858.15
3671.42
4989.86
3757.73
2379.21
2525.97
3315.52
2463.36
3171.73
2706.89
3191.75
3348.02
3081.11
3574.21
2898.01
2889.66
3358.2
3553.6
2769.05
2379.33
2460.14
2807.32
2382.5
2973.44
2580.5
2305.16
2952.23
3263.85
3180.72
2812.52
3234.27
3421.95
3869.6
3302.53
3145.74
3802.68
3732.9
2647.73
2282.38
2367.22
1434.77
1393.99
1765.67
2697.64
4103.56
6714.41
9201.88
2218.95
1743.15
1249.04
4037.13
4867.52
2215.75
5561.91
4153.95
4603.61
2944.74
2909.31
4053.23
3599.91
2693.68
3892.67
4298.48
3332.94
2400.54
2207.2
1339.43
1322.71
2494.71
3333.85
2439.06
1848.49
2174.19
2817.44
1913.68
1953.03
1699.95
2250.58
2728.35
3824.62
3217.99
3970
2657.38
3008.07
3118.45
3357.46
2961.91
2689.91
2199.6
2699.52
2815.24
2344.46
3001.98
2436.45
3052.35
3211.66
3667.83
2857.66
2907.62
3240.41
2710.23
2832.04
2459.01
3100.01
2925.8
3073.45
1900.57
2222.15
2402.55
3679.33
3297.61
3481.63
3162.48
2941.85
2453.16
2379.32
2779.96
2558.47
3008.57
2624.5
2823.29
3088.75
2941.5
3078.28
2951.04
3094.03
2924.09
3142.04
3440.08
2987.16
2453.31
2973.57
2443.78
2373.1
2570.13
2400.61
2364.84
2327.9
2082.54
2769.25
7705.52
2003.35
1373.37
1313.96
1652.86
2530.82
1897.62
2027.24
1478.28
1297.51
2500.04
8180.44
3776.23
6326.29
3928.18
3123.98
4234.9
1084.5
1351.02
4401.23
3446.32
10979.1
7876.91
7593.6
2762.46
2575.7
1892.71
2288.49
2433.52
2419.44
2466.82
3635.57
1391.92
2188.13
1173.83
1565.68
928.635
1337.05
3114.42
2847.06
3139.01
2677.94
2598.19
2651.26
3061
2755.3
2662.77
2580.17
2695.57
2746.87
2397.75
2882.26
2252.44
2242.86
2550.36
3053.26
2849.97
3145.77
2641.25
2755.1
2328.74
3182.45
2185.79
2496.48
2827.45
2276.82
3545.95
2496.37
3567.58
3164.41
3854.38
2961.11
2663.56
3879.85
2364.29
3368.56
3119.27
2097.35
2522.08
1917.87
2784.59
4177.53
1715.62
2314.95
1626.05
2037.97
2836.76
4712.15
3671.56
4030.05
3261.54
3057.46
2832.41
3127.2
3484.49
2874.11
2523.54
2448.14
3062.74
3287.36
3178.89
3386
2975.29
2963.65
2898.05
3618.7
3484.62
3768.24
1706.71
1188.03
998.718
973.976
2090.53
2883.92
2703.56
2724.24
2438.15
1825.06
3159.16
2848.22
2890.08
2745.08
2868.5
2578.09
2964.77
2855.59
2946.16
3914.27
3615.06
2963.8
3461.93
5698.14
2214.17
3867.62
1318.98
2564.57
2208.13
2420.57
1602.54
1322.81
2587.46
5234.28
4914.09
6003.38
3052.83
4611.69
5009.36
4200.38
5560.87
1803.59
1244.45
974.927
1708.96
2690.61
2925.92
4905.85
3145.72
2009.73
1535.1
3302.28
1788.72
3656.42
SCALARS SignedDistance double 1
LOOKUP_TABLE default
112.546
125.307
112.139
112.068
100.303
125.372
224.194
89.4368
110.154
122.372
107.481
115.985
128.134
120.014
122.978
124.243
113.069
106.183
102.479
127.973
105.342
121.62
122.124
130.841
112.064
110.213
110.214
108.406
144.559
126.511
112.372
131.688
114.222
115.691
91.2684
88.3794
163.156
143.523
141.612
119.902
114.02
124.497
124.731
125.796
109.612
115.337
121.528
121.714
120.861
122.529
120.394
115.638
109.604
120.398
122.838
109.727
114.534
114.284
110.537
116.832
124.248
109.461
91.4048
98.9934
92.9259
105.435
113.605
93.9066
102.866
102.862
85.3428
101.978
126.05
118.413
121.721
130.541
121.027
131.723
137.71
123.921
125.009
125.926
124.518
119.563
112.285
113.392
111.056
112.322
105.955
107.278
105.98
116.017
112.277
107.968
116.905
103.095
106.511
108.867
118.552
110.426
121.113
121.174
144.027
146.512
187.7
109.736
95.9144
118.715
104.171
106.748
88.4256
107.284
109.23
105.583
106.239
115.483
112.971
118.97
84.8723
100.388
109.489
122.655
141.686
81.6488
89.524
144.545
127.711
106.726
143.081
134.109
140.816
151.068
142.787
210.365
150.905
112.311
111.374
140
133.731
110.709
110.953
112.475
112.452
123.476
118.52
124.69
126.638
109.539
115.118
116.942
100.105
93.9023
105.658
141.098
111.869
108.583
118.164
145.551
118.54
136.958
124.212
130.279
118.052
112.178
106.709
132.562
121.073
133.434
114.823
116.161
122.15
115.806
118.461
118.804
119.426
118.318
116.455
124.702
121.198
125.496
128.853
128.557
121.516
119.177
119.409
118.168
121.54
127.132
125.192
126.442
125.6
122.923
104.955
105.833
117.905
110.572
114.343
110.337
112.677
128.992
121.56
124.587
120.12
120.759
120.188
123.417
110.787
108.097
112.986
113.828
108.353
112.682
118.021
111.56
116.425
121.408
124.579
116.318
106.01
117.734
116.24
105.636
107.476
105.1
100.697
128.499
109.381
103.315
108.254
114.897
105.057
114.674
88.9889
91.6731
89.2219
98.9362
95.7755
95.1972
97.465
96.9567
100.049
112.142
102.336
103.141
126.212
124.535
118.646
129.038
109.36
114.119
101.586
91.8032
89.083
107.821
92.6339
109.35
91.9111
99.1906
100.521
97.4733
103.64
80.3457
93.0711
101.551
107.857
100.759
104.153
114.273
101.712
87.8606
131.514
113.05
118.107
134.271
133.611
110.575
114.164
123.92
119.885
122.635
120.928
116.696
121.616
119.675
125.319
123.955
123.229
125.691
129.342
125.025
129.896
134.979
119.615
133.382
126.38
121.665
135.189
127.886
134.324
123.839
128.995
126.545
128.333
124.379
121.635
122.519
124.15
122.464
120.342
128.567
124.402
129.27
120.127
121.77
122.658
126.375
128.184
130.419
115.54
118.167
118.715
115.603
109.694
110.838
107.759
113.682
113.873
112.868
111.632
114.892
113.542
116.248
103.276
104.489
100.844
114.41
106.634
113.663
111.129
111.793
112.598
116.902
116.198
113.537
118.07
114.77
119.087
120.343
111.182
111.829
114.232
104.805
108.829
115.169
110.399
113.138
114.35
119.353
105.155
106.467
109.886
107.635
105.026
106.042
108.642
106.982
108.637
118.793
113.184
111.308
110.181
108.391
127.564
112.95
112.949
110.766
115.833
97.5564
111.701
132.439
122.439
125.4
116.714
119.098
158.905
154.28
204.508
140.041
143.047
144.358
153.427
155.391
164.061
130.478
159.115
133.12
91.4448
92.7428
108.97
94.8998
118.22
97.2959
117.852
133.247
125.668
107.357
116.483
114.039
121.006
124.938
107.398
103.552
107.62
102.229
99.5271
110.431
111.658
93.8116
87.9594
109.877
88.0947
94.4474
109.169
107.119
109.852
110.928
106.31
111.372
107.66
103.892
103.394
118.873
117.369
123.548
112.635
117.497
116.801
115.871
116.429
114.036
89.1666
89.6614
100.138
94.2458
89.8541
86.9968
114.559
104.383
111.854
108.124
107.592
104.323
120.709
124.932
108.473
112.92
144.749
130.569
138.041
87.2799
80.1314
92.3385
79.3148
84.1912
81.3378
92.5102
130.982
125.462
109.365
142.367
135.846
149.937
102.431
115.241
109.793
119.665
122.643
128.578
138.391
119.262
153.032
142.28
141.654
142.873
144.441
124.969
141.659
146.773
145.183
144.393
143.923
162.736
164.571
207.345
183.388
142.921
158.845
141.565
144.112
170.539
149.32
207.872
180.262
167.748
114.093
112.369
128.739
117.42
113.011
111.617
110.52
145.87
142.675
124.072
138.331
135.8
139.72
140.611
108.375
111.156
110.455
112.402
113.172
115.897
117.022
114.789
112.716
117.83
114.012
111.393
110.009
115.024
110.861
109.577
112.772
114.313
112.333
119.11
117.547
123.154
114.093
122.055
125.3
125.612
120.088
118.933
129.906
125.538
127.942
122.594
125.743
121.25
109.061
114.558
114.828
108.276
118.182
117.309
118.86
117.23
115.032
115.049
117.9
111.082
113.828
119.426
121.932
115.98
119.303
118.566
105.195
97.0439
100.643
104.419
106.183
88.7621
108.93
96.8922
86.2167
89.0317
111.111
109.424
113.167
117.227
107.328
97.6162
103.727
102.871
148.771
143.712
142.355
143.761
135.356
114.393
108.079
109.945
120.357
135.911
108.678
111.734
110.741
109.988
109.182
121.852
109.658
114.3
111.81
115.624
115.813
111.711
124.501
145.215
168.83
153.397
141.787
135.03
112.97
122.608
117.183
122.661
131.16
123.008
155.386
125.858
127.683
131.759
130.963
130.315
131.357
118.717
120.854
123.993
122.487
130.745
137.871
137.433
137.474
123.733
118.506
132.141
128.611
136.598
