# vtk DataFile Version 4.2
vtk output
ASCII
DATASET POLYDATA
POINTS 642 double
-164.304 254.797 91.7856
149.429 240.053 78.033
-187.775 -309.632 126.259
171.207 -304.549 130.551
-5.13602 -292.399 424.811
-7.48385 75.4742 367.806
1.53698 -161.47 -102.167
-3.17456 181.08 -242.542
284.128 32.969 -89.3984
225.016 -54.7216 269.397
-302.663 36.7315 -92.2624
-249.64 -59.2918 271.057
-202.508 124.731 158.752
-143.646 22.2773 348.191
-100.463 225.078 201.309
83.8958 224.6 199.973
0.854402 289.08 70.0286
103.965 242.483 -111.605
-105.648 250.862 -115.23
-189.256 112.003 -165.253
-334.634 165.16 -70.5319
-303.013 -41.2131 49.4441
136.971 18.6762 339.165
194.404 101.763 159.393
-141.683 -217.677 378.709
-3.81986 -42.3711 428.865
-257.778 -199 2.56752
-252.816 -222.517 206.279
-4.97894 79.9876 -229.927
-179.017 -120.718 -143.669
308.58 159.424 -71.0452
185.099 96.9991 -174.972
233.402 -217.134 200.357
124.827 -211.781 371.379
91.1815 -365.162 322.515
-98.9277 -368.989 326.84
-1.4173 -330.604 224.853
-186.802 -253.088 -34.9035
171.838 -253.858 -35.2121
165.625 -122.485 -134.216
243.708 -193.127 -2.43562
290.022 -36.0083 39.8952
-191.003 217.367 112.721
-152.898 213.533 180.385
-134.392 265.105 152.676
-206.95 -10.6423 318.156
-195.821 56.2448 277.344
-239.768 12.3367 241.621
-53.8325 168.634 286.835
-105.995 138.583 286.697
-54.726 54.3778 381.229
-83.5751 278.345 148.805
-89.3716 290.677 87.6274
40.4134 168.395 285.275
-1.47462 217.355 223.602
74.8027 290.788 82.6372
68.6403 278.504 149.958
115.265 259.029 150.589
-59.4511 288.337 -12.9853
-172.6 236.971 -30.1883
161.612 226.522 -25.5401
50.9279 288.785 -7.45486
-58.4006 230.608 -192.87
-4.55358 270.421 -125.924
48.055 228.162 -191.51
-274.457 211.793 -80.8451
-288.211 197.194 -63.6177
-90.5963 149.227 -243.357
-171.068 193.066 -159.871
-345.082 128.487 -83.7754
-306.315 149.476 -136.308
-285.285 97.6 -142.991
-308.474 149.812 -28.0395
-311.986 28.1182 -38.2204
-338.404 128.215 -70.0419
-268.962 63.638 67.568
-276.759 -75.8342 186.02
127.549 203.472 178.045
166.731 206.034 88.2054
41.4123 53.923 372.811
95.5108 132.693 282.403
219.393 15.1403 240.089
184.018 51.8055 271.451
192.101 -15.3973 312.573
-56.1331 1.94958 416.037
-8.31175 20.3969 415.581
-212.87 -111.35 322.659
-162.903 -51.4162 366.807
-2.56505 -193.532 424.729
-73.2983 -138.982 419.883
-89.1567 -253.615 421.324
-290.103 -141.742 148.06
-263.173 -138.37 240.372
-288.919 -98.7873 -47.7686
-295.426 -111.832 35.9313
-230.811 -279.371 165.791
-278.269 -219.272 109.153
-234.938 -258.449 69.4135
-195.396 12.3651 -161.208
-246.309 -56.3721 -116.915
-5.01062 129.915 -259.649
-73.0608 127.121 -241.319
-179.894 -140.56 -122.952
-115.914 -34.9245 -188.132
12.3131 2.0771 -148.697
161.526 184.374 -150.589
82.6857 146.373 -240.396
264.552 192.61 -58.2839
252.88 209.899 -81.2439
269.899 92.6893 -136.908
285.593 145.336 -129.677
321.307 114.662 -82.5674
212.493 -270.831 166.65
163.42 -298.189 275.53
121.344 -341.113 252.083
197.46 -100.97 317.663
190.548 -213.431 305.113
243.744 -137.782 231.446
41.5157 -339.657 395.52
116.868 -288.056 376.68
74.806 -253.848 418.103
46.7229 -376.542 291.961
107.331 -327.776 166.65
-51.6158 -343.867 400.825
-5.54439 -399.423 344.109
-123.08 -325.103 178.835
-57.6972 -377.617 298.326
-132.224 -346.988 255.888
151.128 -281.072 64.226
163.416 -286.747 31.0265
-177.236 -289.965 36.4283
-149.108 -273.56 63.6427
145.726 -201.667 -74.479
2.84057 -203.619 -86.5534
-147.485 -198.606 -72.5851
191.572 -241.046 -28.0543
220.568 -251.28 63.075
159.303 -143.203 -127.479
162.071 -199.671 -94.9364
277.054 -95.7223 -44.9959
219.212 -161.611 -80.5844
241.175 -55.7044 -110.215
256.878 -216.09 106.756
296.505 18.0849 -29.9725
285.371 -102.497 18.3787
261.858 -141.858 154.361
253.831 -75.5057 179.419
60.5725 -138.387 417.755
153.238 -53.1151 361.478
42.6799 0.308017 407.689
-180.89 -303.595 282.703
-132.92 -290.696 382.382
-210.384 -216.207 316.188
-178.592 -201.839 -98.8312
-200.668 -245.917 -30.1334
-229.294 -163.441 -84.4393
192.04 19.7847 -150.476
95.8957 -41.147 -191.419
64.8967 133.09 -241.572
251.326 48.1431 62.5238
312.015 109.103 -70.4404
281.61 147.357 -28.6769
-181.531 236.694 103.482
-162.689 246.664 142.421
-147.16 267.301 129.616
-167.053 182.535 170.474
-170.546 224.756 153.19
-191.922 193.33 117.942
-121.123 256.226 172.68
-148.25 242.358 166.436
-130.891 225.644 192.187
-229.796 -34.035 295.805
-226.74 1.23295 281.607
-247.188 -22.5331 258.036
-179.033 38.6033 313.33
-203.115 22.7489 301.241
-182.225 6.68617 332.956
-229.1 50.2971 214.016
-219.028 36.0314 262.914
-201.063 82.2459 230.878
-26.5203 121.191 318.606
-49.0364 104.826 324.983
-32.9656 64.9257 379.068
-97.3485 187.158 251.999
-78.5583 160.254 287.825
-74.6421 193.768 257.046
-92.4169 38.8894 368.324
-84.7941 89.1059 323.379
-127.29 66.8178 322.257
-165.588 133.335 223.077
-149.445 93.8875 280.169
-128.276 175.35 235.318
-120.446 282.49 129.951
-127.805 280.459 96.3076
-98.6731 262.96 170.662
-108.586 275.606 152.887
-66.4666 295.755 75.257
-91.8687 288.067 123.696
-54.1084 285.33 115.257
15.4425 122.59 318.329
-4.3675 167.608 287.496
53.1909 220.563 213.283
24.5835 192.122 262.845
60.1535 192.188 252.924
-34.4807 191.162 263.866
-65.5678 219.962 218.834
106.891 275.009 88.2828
101.61 278.066 127.439
128.065 259.238 126.995
47.996 286.043 115.979
75.255 287.69 121.742
57.7556 296.322 75.5309
101.741 252.132 170.697
89.8401 272.923 153.009
80.807 262.408 170.257
-46.0412 254.468 173.922
41.4326 255.379 172.981
1.30533 273.463 147.451
-110.004 286.616 42.2649
-160.936 244.328 26.5033
-42.169 294.278 34.7708
-76.1584 299.555 40.3662
-137.289 249.453 -67.1358
-94.3344 282.452 -13.0668
-78.575 280.514 -68.4146
152.265 232.552 18.2123
98.3032 283.924 38.629
69.5432 274.895 -64.3666
87.8134 279.252 -7.06009
139.199 235.498 -72.0129
66.6787 298.607 42.1769
36.2786 297.89 35.5681
-30.4238 209.935 -221.59
-3.62756 232.034 -197.408
22.5454 209.295 -221.448
-53.1884 265.529 -123.178
-30.8894 252.335 -161.905
-83.0734 245.356 -159.029
72.5524 240.686 -155.831
21.7736 251.015 -161.448
42.7952 262.8 -122.988
-3.43695 288.543 -15.2178
21.0242 284.071 -75.1554
-31.6635 284.815 -75.7827
-247.622 221.269 -61.6049
-211.307 205.285 -15.4278
-203.141 205.344 -76.1823
-244.811 221.808 -60.2417
-312.706 184.922 -69.8822
-281.958 207.13 -74.4399
-307.202 196.47 -77.6347
-46.0678 166.251 -245.282
-74.7069 195.938 -222.444
-187.655 152.597 -173.876
-118.138 174.238 -214.191
-127.062 137.533 -226.773
-102.481 216.464 -189.204
-140.95 222.172 -148.951
-330.847 98.0263 -91.9837
-319.851 115.597 -117.137
-301.063 72.4578 -120.468
-332.866 163.29 -97.048
-332.96 135.694 -111.482
-350.41 141.563 -79.0217
-266.027 109.994 -154.037
-297.685 126.758 -140.426
-275.176 133.556 -152.376
-240.485 195.471 -125.335
-261.744 171.763 -142.905
-291.28 189.972 -112.39
-228.46 178.89 17.2865
-324.998 160.62 -55.4111
-305.108 171.505 -42.4154
-240.574 158.815 23.7578
-249.595 129.753 37.61
-313.223 34.0709 -64.2785
-337.141 104.797 -72.0667
-316.371 69.7853 -36.0461
-331.546 100.169 -64.6564
-307.428 2.30776 4.76164
-344.093 132.312 -76.1188
-345.033 139.231 -74.2664
-258.897 -24.6114 221.225
-263.603 -64.1065 233.627
-249.551 72.7011 116.382
-252.002 19.3854 188.566
-287.793 -67.6669 123.96
-268.547 -19.4949 156.151
-289.005 10.0354 44.8567
-326.961 136.399 -44.3599
-312.336 110.809 -25.6422
-298.698 117.771 -10.4356
140.223 240.052 138.36
161.613 222.486 81.9514
108.811 219.94 189.517
126.846 237.543 162.133
176.813 169.61 103.706
145.805 219.553 148.869
147.391 161.466 175.635
16.8041 65.7968 374.598
36.536 107.933 321.595
118.853 65.1149 315.015
75.4096 89.8796 316.521
85.0315 37.7996 355.977
65.7918 157.063 284.14
83.3037 182.603 248.61
223.397 -18.2083 256.572
209.103 0.645993 276.84
210.258 -32.3748 294.045
190.44 70.122 232.216
204.09 34.789 257.668
210.583 46.3774 215.926
169.325 1.25719 326.703
189.23 20.0757 293.886
166.659 35.2956 305.851
114.012 164.947 235.525
138.786 87.864 276.774
150.582 117.347 228.881
-33.2642 38.277 403.601
-8.62517 45.6288 397.961
-92.2467 13.2993 385.789
-56.9051 26.1962 402.98
-8.28205 -4.56446 426.123
-34.644 10.2017 420.199
-33.9026 -13.811 427.68
-237.837 -76.8507 295.94
-214.085 -52.3996 321.318
-154.255 -123.938 367.464
-190.158 -77.7996 347.394
-178.298 -164.386 343.414
-187.523 -30.4123 344.552
-156.494 -12.7189 359.231
-2.58506 -253.962 425.195
-55.1619 -235.993 425.914
-49.4585 -274.196 425.068
-34.8612 -81.7278 419.806
-48.0868 -164.436 423.825
-1.22516 -108.184 429.241
-110.145 -244.79 407.036
-81.4651 -221.89 417.447
-98.9971 -195.74 400.842
-104.699 -25.0653 387.899
-106.868 -90.3358 393.862
-63.5759 -46.5451 418.133
-275.476 -103.771 211.423
-259.646 -95.5743 255.919
-292.827 -101.263 114.493
-288.998 -108.258 168.994
-257.706 -181.353 226.781
-283.088 -136.292 193.343
-274.858 -178.642 167.546
-297.229 -44.8241 -68.1935
-305.694 -51.9354 -38.0919
-278.507 -155.939 21.8243
-298.5 -102.918 -16.5826
-269.653 -144.318 -26.9291
-307.094 -64.1098 -3.31687
-305.304 -79.2055 46.041
-211.693 -296.578 146.493
-239.272 -271.307 116.68
-213.755 -286.561 99.5624
-271.806 -223.505 144.093
-259.53 -248.93 131.31
-243.696 -253.833 184.782
-249.592 -229.985 34.9985
-260.401 -241.682 91.4192
-270.752 -213.342 65.5594
-293.022 -142.88 94.5552
-288.006 -179.899 86.461
-292.01 -187.498 122.171
-266.762 33.0616 -129.384
-276.733 -11.2177 -104.52
-204.235 85.9413 -160.545
-251.841 63.9969 -151.137
-207.005 -94.2697 -132.241
-226.973 -20.409 -141.379
-181.004 -62.2362 -159.485
-3.85342 140 -264.058
-41.6169 134.479 -257.709
-31.81 97.2102 -238.964
-34.7261 128.275 -253.13
-5.71505 116.76 -250.362
-84.2862 134.038 -245.041
-123.504 135.534 -225.065
-123.861 -155.673 -105.267
-130.52 -94.2224 -131.642
3.70343 -123.713 -96.915
-159.793 -81.8474 -167.432
-166.498 -90.5161 -165.892
-184.433 -134.287 -139.394
14.3282 74.8911 -228.452
-97.2307 -20.3979 -197.203
-47.3895 38.0194 -210.96
-124.005 78.1844 -192.232
-76.4178 40.3245 -206.831
-142.494 -25.525 -184.7
[...]
POINT_DATA 642
SCALARS Mean_Curvature double 1
LOOKUP_TABLE default
0.0117027
0.0148671
0.0187534
0.00979591
0.00710696
0.00351486
0.0852111
0.00979602
0.00262787
0.00884072
0.00441889
0.00942859
-0.00216109
0.00407138
-0.00605119
0.0040365
-0.00456813
0.00367281
0.0017061
-0.0195332
0.0506086
0.0158097
0.0051847
0.000622869
0.00132911
0.0134216
0.00734822
0.00583198
0.0046318
-0.043425
0.0554764
-0.0654806
0.00431765
0.000947376
0.0203441
0.0142273
-0.00535161
-0.0224444
0.124327
0.0104142
0.00936925
0.0158771
0.0208529
0.0106537
0.0181489
0.0105765
0.00832088
0.00580928
0.00997672
0.00739328
0.0088204
0.0135416
0.00264239
0.0125832
-0.000257838
0.00539483
0.0194209
0.0175198
0.00243853
-0.00577564
-0.00542162
0.004186
0.00952406
0.0084977
0.00996159
0.0200386
0.00202686
0.0206768
0.00369564
0.0296536
0.026009
0.0106839
0.0148946
-0.0018915
-0.00782555
-0.00272662
0.000636163
0.00167519
-0.00143336
0.00480722
0.00721122
0.00912973
0.00899168
0.00973368
0.014475
0.0126743
0.00553909
0.00906724
0.000776511
0.0153194
0.019849
0.00596492
0.00630609
0.01077
0.000210865
0.0109173
0.0134522
0.00342851
0.000270418
0.00461258
0.0362482
-0.00544332
-0.0231842
-0.0398696
-0.0121975
0.00115738
0.022734
0.00693879
0.0292254
0.00804327
0.0188861
0.0677424
0.00799947
0.0057412
0.00554327
0.00791629
0.010917
0.00838746
0.00866738
0.013741
0.0238329
0.00641812
-0.0423493
0.0135435
0.03441
-0.0530361
-0.00645383
0.00618227
-0.0154154
0.0577431
-0.00784174
-0.00917808
-0.00877206
0.0273919
-0.00773175
0.00558346
0.00589431
-0.0402058
0.00253308
0.012357
0.0106888
0.0115459
0.0166537
0.00621223
0.0167569
0.0025262
0.00257642
0.0121876
0.0121532
0.0108598
0.00813623
0.0129702
0.0156749
0.046354
0.0092852
0.00834306
-0.00260352
0.0159815
-0.00538169
-0.00453272
-0.00727257
0.0107681
0.0105532
0.0171876
0.0176014
-0.00376359
0.0177221
-0.00364552
0.0183927
0.0168925
0.0142761
0.00684682
0.00758274
0.00850708
0.00811459
0.00972181
0.00976107
0.00294403
0.00771167
0.00408661
0.00308877
-0.00334311
0.013854
0.0107818
0.0129268
0.0139792
0.00258276
-0.00324271
0.0033385
0.000317858
-0.000678475
0.00376596
0.0220854
0.00847292
0.0120344
0.0217059
0.0111233
0.0191843
0.00122374
0.00637198
0.00461237
0.000756133
0.00857649
0.0120332
0.00539506
0.00259689
0.00305232
0.0194323
0.0157056
0.00238262
0.0242665
0.0153494
0.0164041
0.0219169
0.0183295
-0.00151161
-0.00088597
0.00706627
0.00924177
0.00204098
0.00197547
0.0207604
0.00757862
0.00454608
0.0108127
-0.000371144
0.0118304
0.00655385
0.00485661
0.00230579
0.0203527
0.00868078
0.0109106
0.00838016
0.0130186
0.00423804
0.00612166
0.0104679
0.00847625
0.00664122
0.0041876
-0.00103949
0.00818514
0.00701259
0.00531431
-0.0137951
-0.0208492
0.0652372
-0.000848535
0.0277266
0.0497421
0.00601474
0.0108031
0.00938618
0.00665527
0.0517882
0.00913923
0.00942364
0.0139791
0.00639981
0.0127601
0.0230936
0.0339975
0.0791662
0.011082
0.0139522
0.0142917
0.0126609
0.0132855
0.0167629
0.000217697
0.0106297
0.0114206
-9.05398e-05
-0.00527682
0.0111132
0.0514999
-0.00736446
0.0162905
0.00444984
0.0512683
0.0189063
0.00489839
0.00456517
0.00497101
0.00484295
0.00153499
-0.000641296
-0.00372985
0.0269693
0.00725922
0.00437033
0.0175039
0.0102545
0.0104595
0.0181109
-0.00262368
0.0122849
-0.00376181
0.0120213
-0.00178573
0.00453173
-0.0031303
0.00198846
0.00977339
0.00806602
0.00670085
0.00838761
0.0105449
0.00585594
0.01154
0.0047393
0.00833321
0.00974326
0.00752882
0.00509573
0.000816785
0.000581822
0.0174549
0.0097499
0.00754917
0.0126279
0.0157177
0.0197358
0.0177098
0.0102575
0.00624972
0.00263637
0.00731638
-0.00332353
0.0105548
0.00737676
0.000409871
0.00762925
0.00598612
-0.00645265
0.00263706
0.0125301
0.00614002
0.00972859
-0.00537721
-0.000438755
-0.00118979
0.011659
0.00544355
0.00845202
0.00221298
0.0114723
0.00305208
0.0120423
-0.00305212
0.0118787
0.0107666
0.000396333
0.0140323
-6.53599e-05
0.00640181
0.0114739
0.00817942
0.0111673
0.00672813
0.00911898
0.0118171
0.00498569
0.00729713
0.0104081
0.00691359
0.00344301
0.00771402
0.0196204
0.000539602
0.00493322
0.00138068
0.0107742
0.00192161
0.00446715
0.00404742
0.0332686
0.0542948
0.00525461
-0.0115991
0.00175121
0.0770438
-0.0102742
0.00440813
-0.00751384
-0.00892506
-0.071141
0.0719023
-0.216822
-0.0256543
0.0293051
-0.0201209
-0.00648737
0.00331005
0.00820579
0.00883408
0.00772396
0.00805297
0.00842271
-0.0312057
0.00324316
-0.00646584
-0.00660011
0.00891914
0.0562851
0.0227957
-0.00803401
0.0369275
-0.0137446
0.012165
0.0183873
0.0109386
0.0185276
0.0211538
0.0152933
0.0999254
0.0195404
0.0291253
0.0196667
0.0157816
0.0144758
0.00570689
0.00974332
0.00743883
0.0030335
0.0112457
0.00631625
0.0102468
0.00908205
0.010432
0.00616513
0.00672743
0.00127232
0.00865518
-3.7742e-05
-0.00119176
0.00446186
0.0044202
0.00461821
0.0143926
0.0168463
0.0111913
0.0103539
0.0123331
0.00678911
0.00500172
0.0207455
0.00765669
0.00679348
0.00734107
0.00462143
0.017624
0.0116863
0.0315324
0.0110469
0.000136981
0.0230393
0.00115431
0.0188553
0.0154163
0.01895
0.0136171
0.00683216
0.0151364
0.012441
0.0271041
0.0245311
0.00938027
-0.00235534
0.00874262
0.00362049
0.0149272
0.0195906
0.0373818
0.0348236
0.0354961
-0.0117634
-0.031172
-0.00361734
-0.0067604
0.0797231
0.10297
-0.124491
-0.0183682
0.0217124
-0.136829
-0.00777369
0.0852282
-0.0339788
0.0490695
-0.00316311
-0.00434478
-0.0206448
-6.63775e-05
0.0124302
-0.0156841
-0.0180553
-0.0064697
-0.0150977
0.0150797
-0.00819901
0.00336844
0.00256183
0.00148375
0.00454522
-0.00377862
0.0343455
0.00574783
0.00710175
0.0112221
0.00611893
0.00218183
0.045751
-0.00353826
0.0309263
0.0962978
0.0786923
0.0126216
0.00841822
0.00893223
0.00767218
0.0041713
0.00516538
-0.00129149
0.00216289
0.0116507
0.0396457
0.0110116
0.00790477
0.00996317
0.00542133
0.0122027
0.0131912
0.0101054
0.00510871
0.0101208
0.0108736
0.00664719
0.0211624
0.0149115
-0.00761678
0.0046085
0.0026381
0.00158207
0.01819
0.00112397
0.0084896
-0.00102798
0.0116857
-0.00508779
0.0103258
0.0111369
-0.0043154
0.00200313
0.00485347
0.00203176
0.0108253
0.00707786
0.0114693
0.00725827
0.00426856
0.0162048
0.0173351
0.0197991
0.00850387
0.000562307
0.00317139
0.00523699
-0.00119227
0.00535566
0.00992105
0.00914048
0.00802134
0.00436238
0.0147597
0.0119468
0.0228612
0.00990001
0.00955817
0.00544838
0.00345225
0.00432337
0.000746011
0.012905
0.00803159
0.00537831
0.00624569
-0.00443968
-0.111329
0.042465
0.114496
-0.0634001
0.00381325
0.00959386
0.00390162
0.0528073
0.188038
0.00707643
0.00606625
0.00339447
0.00505241
0.0082151
0.0689185
0.00660406
0.0103242
0.00247089
0.0026607
-1.88366e-05
0.00866838
-0.00448326
-0.00922759
-0.0728883
0.0369596
-0.1477
-0.0874036
0.0611919
0.0710509
0.107682
-0.021051
0.00361682
0.00808275
-0.00367197
-0.00837738
0.00386796
0.00250245
-0.000881195
0.00248628
0.00323239
0.0752641
-0.0241865
0.0337171
-0.0237654
-0.0169475
0.00473315
-0.00517905
0.00224416
0.0138644
0.010044
0.00626079
0.0129893
0.00565828
SCALARS CoVolArea double 1
LOOKUP_TABLE default
2238.4
2173.06
1411.15
1633.8
1344.89
1497.84
1977.83
1617.33
1948.99
1298.22
1982.75
1173.65
6318.73
2176.3
1576.51
1454.41
2939.28
3202.85
3528.4
2249.16
600.851
2932.71
2183.26
5862.41
2733.76
1565.81
2349.34
2733.76
1394.83
1163.99
441.75
1406.1
2450.83
2887.49
1762.75
1962.99
5196.63
679.788
392.519
1577.65
2256.6
2123.23
1903.02
1901.92
756.542
1324.16
2383.65
1760.18
1790.56
2836.24
1770.91
1638.55
1336.44
1683.18
3527.45
1201.05
1289.93
737.42
2461.83
3477.39
3339.87
2464.52
1962.3
2329.87
1906.26
1564.08
2039.03
1511.24
3228.04
568.729
1470.7
1447.74
1689.85
2179.4
764.439
4941.54
2437.34
2096.17
2297.89
2049.37
2668.75
1447.13
1991.95
1157.96
1392.78
780.392
2548.59
2721.71
3376.83
3061.63
1136.5
2014.92
2210.82
1858.48
2498.32
1980.82
1357.35
1913.04
4622.74
2706.13
407.157
2503.11
1876.13
1280.14
13290.6
3917.46
1433.42
1414
1075.42
1237.89
1462.57
487.389
1799.65
2338.92
1975.24
2350.5
2145.9
1842.82
2028.64
1818.3
982.603
1233.46
1150.03
1941.84
1358.17
1230.77
1299.27
2036.82
6226.94
818.327
634.491
7078.01
3097.7
8669.52
3287.52
1308.34
1757.76
980.808
450.286
1587.49
1768.93
2373.14
1314.52
1760.51
1863.14
2527.87
2728.27
3159.03
2006.23
1788.26
2345.17
2010.65
2119.15
325.028
1351.3
1948.94
4998.27
1295
2980.16
5335.42
1075.16
1546.55
2474.98
985.745
1126.34
3150.96
1252.45
3845.45
891.792
856.985
1572.79
1380.07
1410
1489.76
2083.95
1289.34
1350.36
3598.34
1681.84
3339.75
2284.29
2159.44
1404.87
1847.8
1835.78
1505.26
2229.15
2812.79
3049.58
3561.92
3631.67
3169.25
976.597
2163.37
1469.45
690.802
1706.95
1037.44
2795.55
2178.37
2139.99
2187.94
2059.84
1475.42
2191.62
2623.38
2357.57
1057.42
1346.26
2513.57
910.468
1396.75
840.89
677.858
1165.24
3267.73
2805.33
2781.6
3092.23
3663.44
2541.27
1627.03
3766.69
3185.13
2912.44
3303.81
2715.01
3383.06
3293.09
3820.34
1398.83
2352.03
1910.47
1979.21
1845.95
2452.16
2109.88
2257.32
2359.21
2062.53
2634.27
3239.25
2985.86
2897.64
1790.89
3814.87
4049.35
1579.7
540.149
339.015
866.174
1867.79
2065.95
3542.96
2770.27
1617.24
2451.02
3670.32
1530.81
1160.29
2005.5
1378.27
896.305
457.365
1520.49
850.226
1995.42
3170.99
2576.89
1884.64
3400.03
697.019
1753.74
2750.51
5379.24
2132.52
878.657
2379.77
899.979
2244.65
159.856
366.691
2340.73
1681.65
5497.01
3619.27
3537.98
5019.56
5575.45
792.903
2799.94
2629.47
1071.62
1919.41
1580.11
851.432
5116.99
2012.1
4049.67
1472.79
2215.01
2821.35
2875.52
2485
1886.83
1886.6
1438.12
1176.67
1180.96
2977.82
1244.31
2651.36
1265.13
1192.66
1903.66
3026.15
3125.57
3307
848.064
935.529
1871.77
1056.51
792.635
721.529
1308.32
1746.46
1675.64
4155.21
2401.59
2954.87
1450.67
1941.91
2182.53
2186.17
1610.81
2529.32
2932.84
2764.32
1203.82
1656.26
3464.04
2815.94
4331.19
2782.54
1639.34
1757.12
2524.49
1742.72
2552.52
1936.51
2428.85
2376.97
2074.71
2916.17
2067.07
2220.69
2499.09
2609.32
1913.43
1538.29
1642.99
1916.28
1488.7
2157.81
1817.36
1492.47
2132.27
2380.2
2233.07
1787.64
2461.82
2576.6
3716.21
2663.22
2403.19
3121.16
2581.12
1269.71
825.29
1914.23
657.657
864.511
498.07
2059.46
3513.88
8603.9
10433.8
925.555
1619.53
340.923
4425.59
5556.71
1660.18
5545.83
3641.99
3746.48
2041.78
1790.84
3113.89
2764.96
1420.02
2988.29
3589.99
2727.74
1580.99
739.741
418.265
536.606
1520.54
2435.55
1654.08
934.149
1329.76
1821.19
916.876
1051.79
377.909
957.405
1186.74
2566.82
1696.88
2794.79
1856.99
2088.72
2146.22
2575.28
2061.65
1886.63
1274.3
1817.85
1826.78
1599.62
2298.39
1798.73
2312.69
2594.56
3097.11
2141.83
2207.28
2490.68
1652.87
1665.86
1496.11
2069.05
1883.87
2115.38
1324.86
1171.96
1528.75
2745.28
2272.03
2504.41
1971.49
1761.2
1166.57
1386.72
2422.47
1477.7
2839.49
1584.31
1763.53
1662.86
1841.51
2132.46
1890.44
1712.94
1432.71
1759.12
2291.94
3013.91
1558.5
2982.94
1435.24
1281.96
1191.76
962.684
916.133
1701.43
822.215
1770.69
9948.02
1743.09
176.125
667.289
1696.46
1228.77
739.164
2130.27
1229.07
299.941
2861.61
10715.7
3685.1
7281.55
3721.88
2965.06
4620.9
984.358
1323.39
4733.75
3202.71
13375.1
9035.81
8981.46
1866.27
1901.65
378.174
973.65
1653.6
1643.94
1611.76
3070.55
1104.42
837.638
324.886
296.631
489.926
132.876
2168.04
1976.46
2184.64
1842.67
1838.13
1969.09
2504.11
2035.57
1750.79
1004.66
1456.15
1759.14
1574.14
2095.6
1408.26
1358.15
1679.5
2141.69
1874.94
2283.92
1693.54
1549.8
1492.77
2523.74
1514.16
1928.88
2017.02
1462.85
2976.61
1833.66
2980.48
2190.12
3200.1
2063.17
1904.72
3458.06
1650.31
2463.53
2122.54
1289
1727.04
1121.7
1962.36
3512.1
940.537
1377.49
790.583
1326.61
2122.73
3941.26
2809.65
3234.26
2396.21
2046.15
1964.37
2258.27
2668.34
1727.99
1524.99
1346.41
2023.77
2281.18
2426.85
2618.01
2263.91
2314.45
2047.75
2582.03
2357.46
2783.14
1548.68
253.082
767.96
599.463
572.529
1795.39
1868.55
1901.42
968.281
305.076
2343.09
1691.76
2203.84
2010.27
2067.94
857.75
1884.77
1360.66
2168.52
3067.17
3094.07
2395.16
2987.42
6816.19
1202.4
3668.84
818.432
1219.15
732.7
1769.93
324.153
614.529
2030.1
4708.48
4396.53
6520.98
2512.85
4352.37
4815.88
3682.8
5060.77
675.466
460.215
132.647
642.268
2014.51
2198.94
4952.59
2737.96
1327.27
730.034
3006.86
1149.24
3017.95
SCALARS SignedDistance double 1
LOOKUP_TABLE default
57.1472
68.3979
62.3557
55.8866
51.0381
64.0839
184.91
44.0739
54.1115
60.2991
53.1473
56.7464
64.0081
59.8824
66.9994
67.1237
56.8494
54.0642
51.944
68.6087
54.9725
60.5735
59.8573
64.4238
55.5782
55.7717
55.8776
53.3881
82.9469
81.1858
57.8589
82.3293
56.4128
57.9246
46.3719
43.2965
109.941
74.8718
74.5115
67.8749
59.3718
61.259
71.6927
67.6998
51.7754
55.4795
58.6201
60.1191
58.9672
60.7085
58.4156
56.9213
56.0406
57.4667
63.9562
55.7811
56.9899
54.4551
56.0757
63.6917
68.4713
56.3583
45.0588
49.9774
44.9707
60.5623
55.9311
51.9616
56.3649
59.4605
44.6239
50.0181
65.2444
61.9078
59.4538
68.6844
60.6157
69.9876
71.7412
60.6807
61.0476
62.3222
59.544
57.7384
53.7978
55.5064
54.7463
54.664
53.5106
52.9927
53.3928
58.4324
56.2774
51.344
62.4669
48.9406
51.5771
53.4578
60.8876
55.4623
62.2774
61.9838
71.4967
105.443
149.488
63.0093
54.1695
58.3011
58.9701
52.3741
43.7143
63.0129
53.1209
51.6746
52.933
56.4974
56.476
59.8677
42.0657
51.8394
56.0715
65.0057
84.3981
39.0945
58.9716
79.467
67.1565
55.1231
71.2976
84.6026
86.6086
84.6057
74.1173
192.502
84.801
55.7319
53.9004
69.0522
75.5099
52.5713
52.4085
55.3282
56.0881
68.8261
58.5171
62.4586
63.0333
54.1843
55.9559
57.3691
48.4479
47.0597
52.7703
82.4371
59.5758
51.4927
60.6824
112.623
58.5623
78.5716
61.4324
66.4689
62.8677
54.3106
50.1646
68.081
62.1439
71.2269
55.3762
56.7128
66.5051
57.1946
58.3431
58.0602
57.4412
56.9275
56.1221
61.2333
58.748
62.073
74.2606
72.8975
60.8376
57.3434
57.2414
56.5639
59.8799
67.0474
63.6321
63.2522
65.0631
60.6326
49.9558
51.5458
58.2234
55.0825
58.7014
55.7729
56.5278
74.0392
58.9696
67.0236
58.1297
58.5138
58.018
66.3094
54.2686
51.5354
54.9072
56.3604
55.3746
57.8778
56.5777
53.108
57.5052
60.6674
62.8085
57.0105
51.7088
60.1621
60.2705
54.2546
53.6183
51.9205
50.1868
68.503
54.1808
50.7921
53.5465
61.9044
52.6263
60.7341
42.8377
45.0965
42.4743
48.9465
47.2769
46.949
47.7687
48.2584
48.9373
56.327
51.6549
52.4312
81.9579
62.6943
64.3592
83.5095
52.3806
58.8104
55.1289
47.4996
42.5879
62.4009
44.9785
60.3954
44.5293
48.5673
51.2116
47.2122
50.2275
39.2889
48.9855
62.8911
58.506
50.0987
56.8033
69.5996
57.8185
45.9103
67.3259
55.771
58.8573
68.2329
69.6144
56.2757
59.3301
61.5456
58.532
67.6676
61.056
61.1417
60.286
60.5831
60.4674
61.0334
62.712
63.9139
67.2105
65.2412
66.0694
67.8301
58.9011
72.6624
68.1483
59.6336
67.6363
66.8083
67.9202
61.5056
72.1013
62.8464
67.7531
61.924
58.5734
59.2701
60.8307
59.9341
58.9347
63.6138
59.8437
64.0998
58.1217
58.5508
59.334
62.0711
66.1508
66.1014
56.8512
57.9966
59.5179
55.3729
53.9054
54.1977
53.9578
55.7706
56.2795
57.8116
54.7409
57.695
54.8334
57.7378
51.4494
52.1669
51.3002
61.008
53.6945
60.8114
54.8546
56.1295
56.7501
61.5068
62.5955
58.3861
58.2635
57.4702
59.7544
60.6399
55.7182
55.283
60.0457
50.3346
56.174
59.7046
55.1892
60.4404
57.6987
62.1348
51.4287
51.9902
54.3839
52.6813
51.4749
52.2323
52.103
51.6291
53.7218
59.9412
58.2676
64.0252
54.4186
53.828
66.7733
58.7869
56.0584
56.9769
63.4419
59.9629
63.403
73.9444
61.2943
63.7329
61.0471
58.3504
102.935
88.6204
174.033
86.1321
87.1849
79.4692
87.8757
123.211
120.229
83.4326
118.132
84.5282
44.4902
48.0537
59.1467
45.5315
74.9789
48.3945
76.2189
66.7897
68.1806
56.8666
58.4135
54.5437
70.7355
71.2011
51.5437
50.0772
56.7066
56.0142
49.352
57.8179
62.6905
47.4787
49.0509
65.7524
42.2592
51.7187
52.8022
52.0681
56.2248
55.6841
51.4838
54.1912
54.148
50.0547
52.3828
58.3601
58.7394
62.6303
55.2769
59.7234
60.8296
56.7522
57.5161
56.0111
47.357
45.2812
51.4047
46.797
42.5479
42.8169
57.2148
53.4827
57.6939
53.2325
52.4125
51.7452
70.2524
77.305
60.1911
59.4181
76.0957
71.556
75.9933
47.707
38.6782
58.1155
37.734
41.1782
39.0272
52.7782
74.5922
72.6425
60.4775
81.4322
74.7379
83.928
52.4989
65.301
64.7888
66.1936
68.8045
65.6478
91.0043
71.7398
87.0471
95.2901
71.9122
87.2946
71.5131
75.5999
77.2134
74.8453
89.7654
72.7021
83.8348
104.397
108.642
180.523
135.797
73.4097
102.189
68.5599
71.6221
117.634
84.2296
178.498
127.43
110.007
57.7098
55.2934
73.5814
70.8724
55.3238
54.1477
51.9658
81.704
73.3571
69.1281
68.9078
71.3977
78.1876
69.9088
52.0717
54.1632
54.903
55.3712
57.8206
61.3747
57.5232
61.4434
54.2412
69.8397
57.7465
53.4107
53.5974
57.9275
53.1547
52.8322
54.9604
60.6889
57.525
58.8267
59.1788
65.4476
56.5862
64.5129
62.4247
62.1758
63.6263
59.8589
65.5387
62.2333
65.0057
61.9957
64.8376
62.4206
55.8179
56.8564
57.6992
54.8665
64.8455
57.1325
58.2107
56.8109
56.4083
58.4324
57.0862
54.7768
55.0129
57.8871
61.2664
63.7206
61.8752
63.0025
51.3362
48.0523
49.2853
51.6297
52.941
45.0018
55.5012
52.8647
41.2305
43.0418
53.9251
54.8522
56.3821
59.7976
53.8799
48.1643
51.7742
50.4211
82.1984
71.2199
84.1041
80.7813
78.4805
65.2355
50.8871
54.1928
74.37
75.1017
53.5583
57.0684
54.8194
55.4803
53.0685
73.3584
53.3641
68.9399
54.5693
56.7567
61.6707
55.1529
73.5341
75.5598
129.181
121.819
80.1624
81.7067
63.2194
74.6723
57.9642
60.9636
73.6659
83.6674
120.395
76.9053
64.7868
67.4071
65.6035
64.4743
65.2778
62.7172
60.5946
61.6582
60.4027
67.3694
70.5759
70.8485
69.8007
61.6888
57.9796
65.9575
65.4677
67.9093
