# vtk DataFile Version 4.2
vtk output
ASCII
DATASET POLYDATA
POINTS 642 double
-221.87 330.33 91.3487
213.745 320.28 83.7271
-229.652 -391.214 114.573
219.314 -385.405 117.62
-3.22943 -311.004 508.22
-4.08173 148.573 445.648
0.732156 -245.335 -178.664
-1.72649 221.066 -309.467
366.376 9.36958 -132.809
321.513 -45.8285 313.276
-380.766 10.7825 -136.63
-338.855 -47.2755 316.834
-296 171.545 197.132
-194.406 69.9291 425.653
-127.963 301.966 272.675
118.436 299.014 270.79
-0.473266 386.584 83.1333
136.191 322.025 -142.718
-138.683 327.631 -145.542
-238.24 119.744 -261.814
-403.014 212.765 -65.8718
-404.305 -31.8403 70.1436
189.166 66.4861 418.521
287.313 157.043 195.81
-199.653 -212.051 456.959
-1.88216 -40.3915 524.223
-336.406 -242.933 -27.614
-334.992 -258.169 234.022
-4.11269 25.6979 -329.96
-212.74 -152.695 -225.547
385.416 205.67 -62.493
232.74 120.361 -262.265
320.977 -253.62 229.543
187.92 -210.135 450.098
130.271 -425.09 349.707
-135.253 -428.801 353.652
-2.68306 -440.495 169.964
-152.603 -344.296 -93.5845
145.058 -344.194 -93.6136
208.788 -153.309 -219.284
326.38 -237.595 -29.1559
393.534 -29.8491 65.9117
-276.013 267.434 141.142
-223.496 263.218 241.365
-178.258 338.092 192.212
-278.885 16.8244 382.222
-265.897 113.213 331.811
-331.681 51.5816 277.221
-66.0213 237.38 364.717
-155.693 195.011 360.48
-91.0215 116.468 455.945
-84.1078 367.769 190.563
-114.357 381.965 92.4999
58.8797 236.264 362.422
-0.641327 304.032 286.294
107.648 380.252 89.2539
75.4918 366.819 191.009
167.095 331.78 190.08
-70.9558 381.605 -28.5717
-206.322 327.868 -37.1193
200.268 323.386 -33.1827
66.6108 379.859 -25.7807
-73.1357 291.166 -242.078
-2.5173 349.917 -159.574
67.4029 289.104 -240.541
-301.033 285.297 -107.449
-334.981 272.081 -26.6253
-116.055 177.493 -310.72
-203.729 241.725 -219.761
-421.868 115.782 -114.646
-348.65 176.574 -186.39
-335.706 80.9184 -212.359
-382.258 196.541 30.7269
-410.837 8.66873 -44.7087
-432.523 117.625 -26.0713
-370.284 84.0154 108.812
-378.109 -57.0292 210.254
207.889 255.711 239.006
263.397 259.348 127.656
82.8807 114.809 450.054
148.593 190.713 356.377
316.878 51.7518 274.01
256.741 109.254 326.617
268.085 13.7256 377.063
-94.5102 26.4379 501.369
-4.05959 63.2141 503.892
-283.001 -118.659 389.227
-214.108 -43.3177 449.548
-1.64282 -195.22 517.305
-105.421 -137.148 506.876
-117.859 -261.536 505.074
-387.951 -154.414 163.96
-351 -154.001 280.657
-367.053 -131.641 -86.7462
-391.44 -139.22 26.1049
-295.67 -340.139 176.091
-359.655 -263.431 104.027
-296.318 -326.539 44.3922
-236.233 -0.67451 -251.828
-305.538 -81.539 -188.331
-2.13654 111.342 -355.089
-104.897 87.0343 -329.106
-143.03 -194.772 -226.197
-122.585 -67.4125 -282.037
3.72973 -70.195 -252.081
196.447 233.245 -214.513
111.111 175.063 -307.607
319.944 267.374 -21.6011
288.02 281.095 -104.761
325.868 74.644 -207.843
334.903 172.928 -179.608
401.884 108.377 -108.566
283.736 -333.129 175.89
233.551 -350.701 302.956
170.529 -418.51 250.535
273.23 -110.78 382.676
270.283 -235.167 356.763
336.428 -150.992 274.017
65.6613 -385.41 448.058
174.675 -322.327 428.409
110.898 -259.962 500.929
61.4846 -470.615 263.758
112.955 -431.795 136.35
-71.3686 -388.137 451.469
-2.4571 -461.008 370.234
-118.749 -433.314 138.77
-66.1791 -473.809 263.922
-178.789 -424.731 251.443
112.383 -386.497 18.4725
182.137 -374.614 0.860537
-187.437 -381.583 2.57945
-118.049 -385.241 19.5056
115.507 -285.484 -155.212
0.656835 -300.693 -85.5833
-120.119 -284.191 -155.05
244.322 -308.659 -70.3106
285.879 -319.689 41.4642
130.912 -195.571 -226.618
178.517 -264.504 -172.389
358.004 -129.292 -83.7791
284.062 -202.717 -138.806
299.48 -81.0991 -183.205
344.305 -257.957 103.018
396.538 3.09112 -39.2077
382.224 -133.669 17.1928
368.502 -152.971 166.156
359.98 -57.7717 204.522
97.4662 -136.681 504.631
208.22 -43.7831 444.456
86.3727 25.019 495.049
-246.062 -355.869 307.274
-183.791 -325.849 432.904
-283.976 -237.344 364.319
-182.38 -267.945 -177.358
-250.35 -312.021 -71.6212
-291.243 -204.68 -142.28
233.152 2.50873 -242.595
112.905 -72.5696 -280.937
98.579 90.8856 -326.402
354.855 75.0933 106.596
409.662 110.378 -25.6881
362.848 192.878 30.495
-252.732 302.185 115.861
-227.287 309.724 174.084
-198.827 341.171 147.418
-259.856 226.452 222.991
-248.588 271.383 199.497
-289.262 231.632 161.644
-154.795 326.377 232.206
-204.359 303.519 219.281
-178.166 288.133 258.921
-311.556 -14.5229 351.9
-310.142 35.0925 332.061
-338.554 3.12102 298.811
-237.248 91.7334 380.58
-274.897 66.1924 360.414
-241.603 44.4953 405.55
-319.361 100.323 247.6
-301.406 84.2644 307.441
-283.923 138.502 273.833
-33.8309 192.427 402.994
-76.839 175.106 409.749
-48.4559 134.347 455.698
-139.678 252.732 319.247
-110.888 221.31 364.641
-96.0286 269.214 323.055
-139.804 94.3653 444.435
-125.671 152.905 405.96
-176.285 126.491 397.905
-239.714 189.26 282.298
-211.989 154.735 347.172
-189.401 231.13 301.134
-152.409 365.604 147.676
-168.01 362.553 96.1166
-109.945 342.408 231.281
-130.413 358.37 193.992
-69.2227 393.219 86.161
-101.548 380.2 144.145
-49.0329 380.5 138.463
26.881 192.673 402.268
-2.88814 237.595 366.458
65.7009 304.991 281.077
32.5435 271.975 329.671
88.0621 267.403 319.98
-37.9822 271.55 330.637
-73.2633 304.678 283.75
156.03 357.388 91.4684
142.241 360.484 144.946
187.282 333.585 145.128
44.5153 382.389 138.922
92.2685 378.01 141.868
64.7556 392.06 86.4518
144.357 321.524 229.863
121.091 354.133 192.966
99.5864 339.964 230.472
-44.3207 340.505 234.489
41.0453 342.483 235.88
0.0951789 364.49 189.837
-148.831 369.015 34.6484
-215.347 328.709 23.0114
-41.8976 393.382 29.6773
-93.1012 388.486 33.5841
-173.723 330.841 -91.0419
-125.441 366.482 -29.4255
-102.756 361.655 -90.0424
210.132 323.281 18.5284
142.735 366.029 32.9731
97.4943 357.144 -87.7798
123.026 363.356 -25.6052
172.337 323.174 -90.351
89.4547 386.618 35.4988
38.342 394.277 30.5666
-37.5758 259.879 -280.163
-1.9303 294.556 -247.089
33.3112 259.168 -279.594
-68.8175 343.946 -155.925
-37.524 324.383 -203.169
-106.03 314.266 -197.28
99.5545 310.67 -194.83
32.6956 323.514 -202.832
63.0402 341.305 -155.297
-2.90806 384.407 -30.1593
31.516 369.38 -96.8623
-37.6316 371.032 -97.1563
-285.08 304.182 -39.085
-276.32 285.981 15.5126
-228.314 294.598 -120.415
-269.065 311.15 -75.7017
-371.24 249.299 -43.257
-324.401 288.39 -61.1339
-356.671 256.864 -87.517
-59.196 202.386 -314.409
-95.6478 240.158 -282.497
-224.264 180.556 -245.524
-153.505 213.523 -274.393
-170.695 147.654 -298.816
-131.971 270.638 -239.676
-174.386 288.663 -188.101
-403.921 74.1527 -129.698
-383.77 99.9128 -170.13
-364.61 49.1971 -177.989
-381.804 198.166 -127.77
-392.766 144.919 -156.046
-421.596 159.995 -91.109
-301.366 103.835 -237.882
-350.356 126.793 -207.82
-309.946 150.054 -228.448
-264.787 265.587 -169.863
-291.608 214.238 -203.819
-328.173 238.512 -152.377
-304.474 256.993 48.8805
-396.513 208.858 -17.5635
-365.278 235.516 2.7177
-326.614 221.085 73.3848
-338.054 183.767 92.5269
-401.576 10.0754 -89.8884
-426.604 77.9386 -78.7845
-415.32 70.6082 3.96868
-428.483 81.5353 -37.5904
-409.034 -4.44183 10.8236
-441.224 119.363 -62.931
-431.368 156.268 -43.9504
-357.959 1.26293 248.98
-361.603 -50.4074 266.507
-342.046 117.016 153.391
-349.811 55.9309 215.846
-390.985 -51.9485 144.114
-372.627 5.2852 179.571
-390.007 29.7006 82.1322
-415.873 155.907 5.16478
-411.418 114.402 25.7813
-389.921 148.71 54.4133
213.626 302.047 170.433
244.363 291.74 105.396
166.29 282.492 256.025
191.281 297.311 215.56
274.473 217.461 149.287
231.549 266.118 194.27
242.636 212.601 221.56
39.7157 133.623 452.659
69.5499 174.769 406.111
170.293 124.034 391.591
119.637 151.743 400.238
134.071 92.2224 436.173
103.829 218.602 361.033
130.97 248.582 316.355
321.607 4.46907 295.875
297.126 33.3862 327.323
297.632 -14.077 348.373
275.084 129.753 273.251
289.979 82.1869 302.471
306.444 96.3003 246.898
232.733 40.4909 399.916
264.552 63.2791 354.475
228.6 88.535 374.433
179.946 223.899 299.163
204.282 150.024 343.182
229.297 179.173 283.688
-49.2267 92.5334 486.115
-4.31954 106.468 479.907
-141.882 49.844 467.864
-94.5902 71.7864 483.213
-3.96888 16.8191 519.227
-50.9151 44.8273 508.393
-50.7199 -2.78419 519.884
-317.947 -76.0088 353.568
-287.236 -43.6915 387.954
-208.808 -127.071 448.634
-252.612 -79.4458 422.093
-244.29 -167.383 419.348
-249.895 -12.2083 418.829
-208 15.7138 441.097
-1.97896 -257.844 515.31
-63.7781 -237.15 516.063
-59.5213 -289.409 509.266
-51.6108 -81.9339 519.426
-59.66 -164.716 516.135
-0.899733 -109.417 524.232
-160.553 -239.923 487.471
-114.876 -214.08 507.058
-150.183 -187.705 484.707
-153.425 -8.90157 477.207
-155.662 -87.5129 482.143
-98.8502 -41.9074 507.615
-372.501 -101.571 244.996
-349.53 -98.1483 299.075
-395.644 -101.688 126.91
-390.436 -104.485 189.67
-344.834 -208.228 260.479
-374.486 -152.305 221.897
-367.519 -206.459 195.583
-374.245 -66.6711 -111.282
-394.3 -70.2808 -62.82
-367.898 -192.073 -0.767295
-385.629 -134.734 -36.6805
-352.282 -186.301 -60.3832
-404.546 -79.0752 -10.518
-405.338 -90.2926 50.0901
-265.669 -369.574 145.509
-302.723 -337.853 107.933
-266.596 -361.949 79.5992
-353.765 -263.846 162.631
-333.409 -302.866 136.423
-318.881 -302.163 205.61
-319.634 -286.899 7.55544
-332.293 -298.144 74.9126
-351.858 -257.156 43.0262
-394.599 -155.895 95.9699
-380.655 -208.723 71.5162
-381.894 -213.171 131.169
-323.428 8.39602 -201.809
-343.903 -35.1862 -165.146
-243.289 75.2365 -261.051
-293.597 46.2949 -233.828
-259.636 -121.286 -209.182
-276.237 -41.1591 -220.674
-224.248 -84.7927 -242.638
-1.94569 162.592 -337.351
-57.9535 142.662 -340.831
-47.6879 56.8485 -335.712
-53.7865 96.8844 -346.892
-2.76312 74.5195 -345.792
-117.156 122.134 -331.742
-167.126 107.076 -308.215
-108.594 -207.722 -210.842
-104.921 -150.211 -239.096
1.61844 -159.441 -213.994
-167.184 -119.369 -258.584
-138.294 -136.378 -252.657
-168.889 -180.161 -235.652
-2.51256 -8.68581 -307.667
-88.7449 -61.418 -276.902
-52.736 -8.02756 -309.647
-164.409 52.292 -286.634
-101.343 11.5952 -305.658
-169.221 -45.8167 -277.67
[...]
POINT_DATA 642
SCALARS Mean_Curvature double 1
LOOKUP_TABLE default
0.00585044
0.00367201
0.00661461
0.00581031
0.0110714
0.00474513
-0.0179167
0.00721724
0.00244676
0.00616988
0.00420101
0.00619302
-0.00222664
0.00386613
0.00409163
0.00471376
-0.00227551
0.00378611
0.00400998
0.00274754
0.0134301
0.00594173
0.00423001
-0.000163602
0.00371306
0.00475822
0.00454502
0.00344828
0.0100178
0.0029158
0.0140072
0.00796737
0.00370045
0.00323347
0.00503979
0.00504894
-0.00123807
0.0148255
0.016156
0.00401803
0.00487571
0.00801144
0.00555059
0.00545481
0.00786988
0.0059012
0.00469319
0.00487546
0.0065204
0.00399922
0.00566989
0.00810919
0.00370513
0.00621559
0.00051837
0.00538041
0.00893173
0.00782771
0.00411821
-0.00127384
-0.000957911
0.0036667
0.00610416
0.00615061
0.00614902
0.00732766
0.00577247
0.0046282
0.00173551
0.0130851
0.00675212
0.0047714
0.00842407
0.0026832
0.0112434
-0.00139842
0.00212136
0.00486773
0.00486066
0.00435063
0.00391421
0.00572789
0.00499165
0.00583652
0.00761945
0.00733376
0.00259741
0.00517458
0.00081703
0.00436187
0.0111482
0.00393144
0.0040993
0.00562118
0.00149035
0.00475531
0.00705644
0.00436983
0.00112433
0.00428874
0.0167698
0.00472677
0.00584049
0.0125312
-0.00744122
-0.000671767
0.00432284
0.0055802
0.00624655
0.00782971
0.00744573
0.00936154
0.00460152
0.00410046
0.00208493
0.00436841
0.00594211
0.00459163
0.00607683
0.00674192
0.0110616
0.00694501
0.00823043
0.00711241
0.00678212
0.00750414
0.00786416
0.0038713
-0.00136685
0.00426603
0.0068428
-0.00209714
-0.000918404
-0.0157338
-0.00136379
0.00607158
0.00441592
0.0121876
0.00697021
0.00582089
0.00571127
0.00534339
0.00705927
0.00267118
0.00586331
0.00434264
0.00220601
0.00480093
0.00661524
0.00645727
0.00474662
0.00614285
0.00508946
0.010678
0.00546561
0.00561832
-7.39155e-05
0.0146564
0.00441207
-0.00255301
0.00649474
0.00802352
0.00535917
0.00713911
0.00755269
0.00372282
0.00779514
0.00441776
0.00784854
0.00785377
0.00517644
0.00516712
0.00554288
0.00531419
0.0051626
0.00584808
0.00577811
0.00304449
0.00522469
0.00297499
0.00160526
0.00241276
0.00653337
0.00438486
0.0057667
0.00533659
0.00336041
0.000641424
0.00239285
0.000402638
0.00194155
0.00279914
0.00819376
0.00476051
0.00792903
0.00858918
0.00964677
0.00875554
0.00142906
0.00270035
0.00342293
0.00297102
0.00511645
0.00474814
0.0040001
0.00288686
0.00295635
0.00774034
0.00685335
0.00439008
0.00731268
0.00931662
0.00768839
0.00823924
0.00774398
0.00171544
0.0047913
0.00229772
0.00489132
0.001099
0.00520295
0.0068625
0.00243624
0.00266265
0.00552166
0.00127705
0.0059223
0.0042482
0.00327522
-0.000968122
0.00687479
0.00696924
0.00626014
0.00590546
0.00677716
0.00401396
0.00510759
0.00603129
0.00536822
0.00568445
0.00394894
0.00217429
0.00484131
0.00510502
0.00873704
-0.00431942
-0.00444394
0.0132097
0.0131378
0.0161061
0.0092366
0.00517957
0.00628825
-0.000717196
0.00506618
0.00660918
0.00561366
0.00401273
0.00428245
0.00842886
0.00592619
0.00574841
0.0106452
0.00863648
0.0080107
0.0135244
0.00892226
0.008187
0.00715547
0.00673431
0.000164743
0.00794045
0.00671795
0.00120964
-0.00280132
0.00302895
0.00793864
0.00112033
0.00776216
0.000945998
0.023244
0.0139415
0.00440864
0.0048291
0.000560502
0.00297
0.00193221
0.0011409
-0.00149555
0.0101141
0.00600643
0.00683026
0.00659594
0.00493437
0.00474408
0.00785286
-0.0010454
0.00728644
-8.91444e-05
0.00589542
0.00220992
0.0027334
0.000915327
0.00270711
0.00548178
0.00414055
0.00514785
0.00555199
0.00622988
0.00390482
0.00592537
0.00410811
0.00545379
0.00568759
0.00504392
0.00282684
0.00250147
0.00158795
0.00813381
0.00690896
0.00455122
0.00704885
0.0079769
0.00844326
0.00827597
0.00637984
0.00514195
0.000729028
0.00507081
0.000843731
0.00601398
0.00484538
0.00294943
0.00517179
0.00721769
0.00305631
0.0020575
0.00442652
0.0111456
0.00743927
-0.000806737
0.00283096
0.00220169
0.00460784
0.00542273
0.00527576
0.00175013
0.00880664
0.00303099
0.00447757
0.00327323
0.0042052
0.00447964
0.00150183
0.00685781
0.00316203
0.00595383
0.0055578
0.00506465
0.00705901
0.00577502
0.00558724
0.00653973
0.00375504
0.00441555
0.00596127
0.00483975
0.00492926
0.00609561
0.0080079
0.00354311
0.00220792
0.00354924
0.00471565
0.00331275
0.00178701
0.003666
0.00482311
0.00729893
0.00393579
0.0124364
0.00686819
0.0140263
0.0120209
0.000486063
0.000276674
-0.0038225
0.00852165
0.00645864
0.0143827
0.00330452
-0.00315035
0.00839199
-0.00399337
0.00143371
0.00518419
0.00591464
0.00539046
0.00273855
0.00532893
0.00700463
0.00510252
-0.00107683
-0.000382536
0.00858057
0.0100484
0.015347
0.0119361
0.00959533
0.00647049
0.00568076
0.0107899
0.00683265
0.0085768
0.00929125
0.00930395
0.0104443
0.00798043
0.00576285
0.00754154
0.00658247
0.00717019
0.00406317
0.00594061
0.00431631
0.00394923
0.00469973
0.00460767
0.0112794
0.00393251
0.0072674
0.00475701
0.00358793
0.00415333
0.00513822
0.00300681
-1.50491e-05
0.00324547
0.00374784
0.00414845
0.00728787
0.0052884
0.00690483
0.00623445
0.00605408
0.00533966
0.00988896
0.00879152
0.00759181
0.00412193
0.00450525
0.00539159
0.00330982
0.00313392
0.00986279
0.00545149
0.0050735
0.00505703
0.0043806
0.00788904
0.00765143
0.00563648
0.00775839
0.00586281
0.00818004
0.00508354
0.00426346
0.00337443
0.00209455
0.00199721
0.00707794
0.00447923
0.00900501
0.00631697
0.00849586
0.0128709
0.0149
0.00706002
0.00885298
0.00287041
-0.00180777
0.00837127
0.0128118
0.0136601
0.00726585
0.00367156
0.0113871
0.00378923
0.0116297
0.0146571
0.00341946
-0.00153296
0.0180429
-0.0156776
0.0178673
-0.000592529
0.0143716
0.00890478
0.00470364
0.0142205
-0.0010003
-0.00768167
0.00611564
0.0058302
0.00384867
0.00522895
0.0049004
0.00471761
0.00447242
0.00558173
0.00615423
0.00118338
0.00711337
0.00537772
0.0126523
0.00791464
0.0143696
0.0129961
0.00506298
0.00544045
0.0032255
0.00516792
0.00398412
0.00377158
0.00235706
0.00375734
0.00595457
0.00477729
0.00568541
0.00595497
0.00627909
0.00379296
0.00625435
0.00632693
0.00527637
0.00163853
0.00516801
0.00662297
0.00648205
0.00224955
0.00731275
0.00123902
0.0064177
0.00269139
0.00327092
0.00638251
0.00176888
0.00661329
0.000340455
0.00610242
-0.000736736
0.00803984
0.00769049
-0.00157895
0.00653612
0.00203647
0.00671921
0.00640977
0.00531147
0.00650842
0.00527529
0.00228352
0.0079591
0.00804226
0.00849771
0.00608886
0.00292422
0.00287102
0.00378736
0.000809371
0.00414781
0.0065852
0.00478378
0.00465773
0.00415333
0.00548295
0.00915765
0.00668328
0.00593012
0.00599161
0.00237345
0.00422475
0.0043057
0.00650811
0.00510948
0.00573757
0.00506459
0.0045229
0.00346231
0.0156393
0.0115619
0.0165669
0.0058128
0.00302361
0.00577049
0.00483625
0.00347442
0.0070665
0.00505942
0.00512692
0.00399774
0.00406755
0.00514205
0.00408692
0.00579661
0.00483161
0.00303603
0.00361786
0.0022993
0.00493503
0.00397592
0.00090851
0.00630005
-0.000398581
0.0112297
0.0049744
0.00722939
0.011318
0.0158977
0.0129032
0.00360936
0.00313737
-0.000174892
-0.00424935
0.00399269
0.00216119
0.000109703
0.00277104
0.000373323
0.00979423
0.0139178
0.0204218
0.00801595
0.00120519
0.0032974
-0.00190038
0.00243158
0.00664357
0.00734111
0.00439051
0.00908473
0.00560038
SCALARS CoVolArea double 1
LOOKUP_TABLE default
3507.92
3546.18
2925.08
2864.79
2766.65
2551.32
4658.41
3014.05
3105.04
2364.26
3257.2
2362.99
6044.18
3474.29
3081.99
3006.15
4099.03
4511
4614.85
4030.52
3230.69
4730.53
3419.81
5844.83
3700.17
3343.47
3743.62
4028.73
2645.81
3534.91
2856.41
3527.7
3760.86
3816.3
3858.2
4020.08
4540.26
1909.45
1917.78
3493.56
3585.02
3883.78
3776.43
3344.88
2483.65
2802.28
3786.63
3070.05
3236.74
4138.11
3030.65
3271.49
3046.67
3193.56
4316.15
2868.02
3057.88
2422.78
3983.08
4849.81
4557.87
4107.22
3618.83
3999.75
3542.2
3708.71
2948.58
3770.28
5182.45
2637.09
3813.96
2947.12
3123.32
3947.84
1992.76
5751.68
3494.99
3422.86
3761.19
3159.96
3977.14
2783
3446.97
2608.89
3134.2
2389.16
3853.01
4196.61
4413.32
4612.04
3011.92
3565.02
3592.08
3486.3
4008.06
3632.43
3170.87
3257.52
5599.5
3984.86
2606.46
3480.82
1927.71
3373.42
8477.04
5337.57
3769.13
2547.48
3418.49
2731.1
3655.31
2654.87
3432.48
3933.6
3536.92
3701.84
3758.02
3265.76
3814.85
3738.74
2842.11
3096.26
3433.77
3795.54
3877.59
3388.71
3089
3646.35
4784.04
3237.46
3152.29
5272.93
3018.83
7041.45
3252.45
3162.77
3166.67
1894.81
2861.91
3208.17
3368.68
3796.64
3101.69
3733.62
3510.39
3753.01
3652.1
4549
3689.47
3354.25
4022.21
3980.71
3843.25
2795.27
3411.27
3500.37
5447.32
3583.18
3561.49
5769.4
2154.63
2838.7
4007.36
2873.17
2928.3
4168.7
2799.1
4234.17
2414.23
2450.03
3165.08
2799.88
2837.53
2847.87
3486.95
2758.77
2800.84
4522.59
3046.01
4500.52
3471.77
3446.48
2816.65
3501.45
3323.16
3032.67
3285.35
3753.35
4088.87
4882.56
4881.32
4593.55
2766.16
3724.39
2962.03
2408.44
3145.13
2725.07
4083.81
3450.06
3475.19
3502.01
3421.21
2984.1
3505.97
3780.42
3771.04
2791.86
3120.07
3906.55
2675.68
2956.6
2361.58
2426.89
2779.06
4388.44
4080.63
4441.92
4480.36
4815.45
3917.14
3318.74
4776.08
4544.8
4462.1
4483.2
4088.83
4705.9
4519.14
4754.45
3158.52
3877.94
3547.1
3635.57
3491.11
4104.21
3647.05
3791.03
3808.02
3596.43
4164.87
4650.32
4683.49
4602.79
3349.87
4472.62
4776.05
3430.12
2324.52
2329.67
3562.83
3726.39
3717.1
5429.6
4538.36
3967.32
4119.05
4899.17
3139.91
2820.78
3449.03
4168.34
3275.54
3048.52
2915.5
2770.58
4006.52
4976.41
4980.83
4474.59
4367.63
2685.35
3075.45
3950.58
5337.1
3823.41
2852.5
3738.05
2650.15
4237.44
1991.13
2524.53
3492.95
2971.84
6245.97
4788.99
4462.27
5406.75
5751.53
2611.47
3712.78
4235.36
2897.67
3749.07
3110.21
2364.85
4753.55
3181.2
4651.44
2854.4
3473.71
3935.13
3750.32
3409.29
3287.87
3455.11
2756.88
2623.04
2595.13
4176.08
2688.28
3897.4
2661.51
2641.58
3324.3
4441.85
4525.32
4662.36
2435.44
2397.64
3396.39
2587.21
2503.67
2409.84
3155.81
3254.8
3193.71
5023.08
3806.73
3915.47
3010.87
3484.08
3416.55
3534.19
3322.64
4206.35
4331.89
4236.32
2629.3
3137.3
4323.76
4439.7
5578.74
4589.8
3060.24
3194.26
3990.36
3132.06
3741.66
3384.54
3884.29
4042.4
3853.92
4182.18
3598.36
3496.03
4090.95
4314.25
3480.48
3137.12
3125.3
3589.91
3155.48
3654.61
3254.48
3039.62
3679.12
4047.01
4018.75
3712.69
3851.55
4077.55
4388.87
3862.34
3699.58
4347.57
4516.46
3568.45
3366.85
3077.33
2381.42
2153.58
2864.97
3544.31
4568.02
5801.54
8766.68
3411.03
2507.61
2337.92
4060.97
4747.46
3201.9
5842.97
4938.23
5513.28
3693.86
3676.09
4792.71
4259.08
3671.56
4497.47
4929.7
3855.98
3092.19
3385.68
2307.22
2238.46
3311.48
4161.84
3105.02
2719.75
2873.18
3756.96
2857.92
2791.23
2852.15
3253.93
3818.79
4768.22
4299.93
4832.62
3361.31
3737.12
3782.61
4046.27
3676.1
3375.98
3043.84
3432.5
3684.73
3014.19
3620.86
3049.38
3732.47
3775.61
4158.01
3467.57
3529.56
3916.75
3586.18
3756.28
3328.35
3967.32
3767.54
3838.44
2591.09
3165.16
3241.91
4488.35
4181.38
4350.35
3944.12
3787.04
3531.35
3137.73
3351.03
3370.41
3524.12
3506.53
3707.2
4127.07
3809.01
3851.76
3799.89
4116.68
3848.72
3980.13
4093.56
3453.99
3266.3
3396.57
3272.74
3195.44
3658.23
3676.83
3665.05
3267.49
3237.92
3472.44
6858.48
2837.17
2425.22
2372.62
2318.53
3354
3042.86
2548.67
2344.88
2360.5
3073.97
7177.57
3726.03
6000.21
3883.51
3454.88
4602.51
1692.34
1847.25
4779.66
3731.55
9703.3
7230.86
6955.21
3395.83
3205.44
2950.65
3085.59
3111.27
3095.63
3245.63
4181.96
1922.81
3110.45
2138.81
2552.07
1751.1
2471.77
3814
3566.44
3834.28
3421.73
3266.46
3270.58
3610.54
3406.69
3384.8
3592.06
3595.64
3603.62
3127.93
3589.89
2983.74
3001.86
3328.68
3691.67
3624.55
3876.17
3439.93
3587.09
3073.6
3821.88
2842.5
3061.24
3550.02
2993.59
4045.27
3115.36
4121.86
3996.53
4483.11
3804.86
3374
4331.65
3051.13
4075.67
3954.54
2831.2
3255.19
2657.49
3489.82
4731.45
2459.74
3158.66
2426.19
2719.54
3503.95
5340.21
4423.74
4752.18
3938.75
3919.25
3562.53
3828
4185.98
3788.7
3440.82
3387.07
3884.32
4135.88
3829.58
4066.97
3621.83
3594.64
3662.51
4518.61
4427.24
4598.39
2074.51
2344.14
1684
1915.58
3206.22
3551.31
3463.5
3360.29
3311.53
2973.66
3845.06
3580.89
3531.21
3409.51
3602.8
3708.21
3798.5
3822.66
3592
4537.74
4137.04
3530.63
4055.63
5046.86
3263.41
4005.33
2394.88
3643.18
3309.91
3334.28
2741.27
2259.25
3217.12
5959.01
5529.96
6097.8
3572.27
5001.48
5249.1
4638.3
5895.25
2670.98
2295.56
1965.29
2528.11
3383.41
3569.08
5031.81
3603.35
2682.5
2476.12
3827.76
2628.62
4238.9
SCALARS SignedDistance double 1
LOOKUP_TABLE default
156.143
169.173
154.944
157.236
136.204
173.517
253.476
125.868
154.675
171.211
150.404
162.875
178.376
167.83
169.049
171.732
157.356
146.689
141.871
164.05
139.593
168.84
171.472
183.269
155.995
153.008
154.733
152.289
191.963
166.341
149.812
168.447
160.023
161.333
128.57
124.752
209.38
196.093
192.697
165.672
159.904
173.266
169.745
173.019
154.868
162.786
171.353
170.738
169.43
171.834
168.948
160.9
151.209
169.92
170.651
153.113
159.372
161.06
152.11
157.736
165.535
150.154
128.39
137.946
130.887
138.583
158.13
130.804
139.764
139.435
119.857
143.168
173.046
162.136
168.742
179.282
168.887
180.806
184.132
173.317
175.548
176.768
175.759
168.501
157.737
158.794
155.909
157.844
147.6
150.208
144.174
160.819
157.058
152.46
161.05
145.993
149.854
153.353
161.571
154.539
159.712
165.913
198.708
196.382
228.115
146.225
133.514
164.721
138.746
149.306
124.906
143.25
153.582
148.413
148.625
162.149
157.239
165.571
119.441
139.327
148.286
162.908
186.63
115.379
118.848
190.38
168.332
147.732
197.857
172.497
179.728
204.199
197.215
245.715
203.87
158.888
157.448
192.583
174.536
156.517
157.384
157.938
157.83
166.833
165.375
172.345
176.855
153.319
161.829
163.519
141.255
131.331
148.521
183.293
157.089
154.073
163.311
194.043
164.762
186.667
172.772
179.645
162.096
158.097
150.748
180.882
168.766
179.671
161.432
163.061
169.171
162.735
166.593
166.84
168.528
166.872
164.322
174.642
170.537
175.484
175.881
174.578
169.914
168.358
168.672
167.076
169.96
175.063
173.805
176.18
174.491
172.358
148.39
148.859
163.988
155.028
156.984
153.734
157.519
176.008
171.031
171.739
169.143
170.102
169.345
170.35
155.289
152.934
158.812
158.915
151.801
155.382
165.89
157.358
163.656
169.295
172.166
162.734
148.685
161.426
158.216
146.774
148.898
147.107
141.762
171.884
152.712
145.218
150.547
155.552
147.359
155.793
125.629
128.85
126.398
138.203
133.859
133.691
137.012
135.102
140.069
155.266
142.841
143.026
168.091
171.654
156.964
163.412
150.434
153.54
132.298
127.83
126.27
143.754
130.392
142.384
129.757
138.324
141.004
137.542
145.202
114.804
124.009
127.404
148.525
138.142
136.908
148.253
135.367
122.726
178.718
155.893
163.226
183.241
183.434
153.602
153.032
172.331
165.693
166.164
160.734
152.898
170.003
166.379
176.137
173.749
171.12
174.055
177.777
167.824
179.667
183.894
167.348
178.202
174.621
170.337
187.541
177.366
186.131
172.416
176.495
176.604
177.438
173.821
171.795
172.625
174.118
172.258
169.22
180.168
175.553
180.781
169.233
171.902
173.062
177.317
178.445
181.337
162.496
165.38
165.377
162.611
153.765
155.975
151.856
159.432
159.771
157.017
156.759
160.222
159.932
162.943
143.858
145.304
137.329
157.069
148.547
155.258
153.567
154.811
157.052
161.624
159.681
157.171
164.765
160.599
165.715
166.928
155.48
157.03
157.877
148.396
151.506
159.334
154.399
156.621
158.021
164.37
147.998
149.71
153.947
150.735
147.859
148.839
153.252
150.942
153.074
164.557
156.516
153.558
154.037
150.73
168.444
155.644
158.638
154.857
160.987
131.106
142.894
177.991
165.38
170.871
154.829
161.925
208.516
206.681
241.488
184.06
196.218
190.6
205.966
205.633
210.242
171.919
197.806
172.433
129.211
129.406
147.132
133.867
151.537
136.244
153.858
180.265
169.642
139.874
157.316
157.393
158.985
162.346
150.945
143.783
149.882
138.083
137.241
151.403
141.293
130.047
123.76
142.988
125.081
131.482
153.783
150.267
153.789
154.978
149.952
156.147
147.449
146.585
141.726
166.793
164.198
171.842
157.676
163.979
162.148
162.523
163.188
159.593
122.657
125.778
135.77
131.799
126.649
122.529
157.829
141.29
153.194
151.748
150.715
145.054
161.047
164.841
144.676
155.119
194.432
173.671
183.875
119.706
112.796
122.8
112.094
118.529
114.862
124.83
170.106
164.377
152.037
188.609
178.481
199.637
140.943
155.301
143.491
153.801
155.914
172.371
180.749
164.231
204.27
194.656
186.332
193.595
198.165
164.692
187.62
200.862
197.675
191.597
197.08
211.977
212.265
244.515
226.626
198.295
212.277
196.243
199.297
222.32
203.638
244.233
228.297
218.083
160.49
157.935
168.251
162.689
158.416
157.76
156.857
198.451
196.103
167.338
186.16
179.203
191.916
186.875
153.046
156.556
153.722
158.225
158.387
160.965
163.606
159.553
159.347
163.182
160.294
157.673
154.964
160.878
156.811
154.614
158.36
158.032
156.571
166.711
162.864
168.639
159.036
167.835
174.454
175.194
165.65
165.642
179.839
175.287
176.754
168.436
173.819
165.699
149.726
160.019
158.987
150.178
160.666
164.966
166.831
165.146
161.59
160.285
165.374
155.638
159.596
167.564
169.894
160.714
165.406
162.784
147.58
134.97
141.411
146.239
148.343
123.972
148.218
132.466
121.8
125.411
156.214
152.402
157.606
161.846
150.36
136.392
143.893
144.488
202.303
192.394
196.536
194.644
171.811
159.048
153.243
155.15
162.983
173.648
152.691
157.365
155.385
154.269
154.002
163.521
155.038
159.397
156.661
162.663
160.027
156.519
164.404
199.178
211.99
201.447
192.793
176.518
144.707
166.56
156.978
166.209
177.239
165.727
193.775
169.633
178.189
182.062
182.261
182.243
183.729
161.299
162.523
166.286
170.062
179.381
186.031
188.975
188.22
170.791
163.589
183.474
175.192
188.583
