# vtk DataFile Version 4.2
vtk output
ASCII
DATASET POLYDATA
POINTS 642 double
-265.658 395.167 93.0687
259.515 387.711 89.1701
-267.626 -459.349 107.387
260.6 -454.269 109.372
-1.90115 -334.436 567.838
-2.20327 204.72 512.887
-0.0627932 -274.435 -269.293
-0.907239 254.598 -365.299
433.528 -7.7011 -171.53
399.254 -40.0913 353.532
-444.476 -6.83836 -175.354
-411.823 -40.5542 357.444
-372.316 209.588 229.821
-237.863 105.134 491.151
-151.953 365.227 326.022
146.361 362.313 324.279
-0.532853 467.001 90.579
159.917 385.207 -171.817
-162.678 389.164 -174.009
-271.818 135.632 -326.548
-453.325 245.677 -77.9319
-488.157 -29.3573 82.1727
233.897 102.443 485.585
364.493 200.651 228.001
-247.45 -215.748 519.501
-1.05781 -37.5104 602.416
-401.37 -281.654 -53.3041
-402.267 -291.442 256.802
-2.15935 -3.15723 -411.813
-250.106 -179.961 -293.988
440.878 239.855 -74.4954
267.304 135.869 -325.972
392.035 -287.431 253.39
239.256 -214.876 514.023
159.052 -476.666 377.983
-162.224 -479.946 380.59
-2.1384 -528.244 137.167
-160.098 -420.385 -141.15
156.478 -418.535 -140.053
246.774 -180.082 -289.703
394.058 -277.482 -53.452
479.681 -28.8595 80.3278
-338.768 317.702 162.423
-277.896 311.32 288.445
-214.541 402.582 220.295
-338.721 37.0229 437.585
-325.318 157.719 379.524
-407.636 81.4298 309.782
-77.9851 296.319 427.72
-195.768 244.772 421.305
-118.653 163.597 522.398
-89.5675 442.838 219.968
-136.573 455.911 95.1085
74.1304 295.178 425.9
-0.500336 374.938 338.116
133.167 454.518 93.3236
84.8699 441.374 219.844
207.662 397.1 218.488
-83.1456 455.207 -43.4693
-232.538 399.272 -46.8703
228.802 396.61 -44.3695
80.5906 452.82 -41.7565
-85.1691 339.927 -285.374
-1.35924 413.642 -189.75
82.0172 338.364 -284.087
-330.178 337.202 -134.651
-378.776 333.053 -11.5125
-136.599 204.663 -368.027
-230.316 281.418 -268.173
-480.311 120.709 -143.88
-387.286 203.18 -225.652
-381.314 73.5461 -267.847
-445.512 238.869 63.6246
-488.83 -6.76898 -55.3247
-510.953 121.824 -11.1335
-452.521 101.667 142.387
-461.4 -46.0476 231.651
267.793 305.141 285.567
329.724 310.189 155.122
113.671 161.834 517.954
191.033 241.47 417.843
396.772 80.6041 306.554
318.548 154.437 375.232
330.998 34.9508 433.082
-122.551 44.0206 574.824
-2.04171 93.7316 579.023
-341.797 -124.197 444.074
-257.684 -38.6291 518.141
-1.15079 -199.185 593.214
-129.629 -136.958 580.043
-138.2 -279.07 566.307
-467.262 -169.208 177.548
-423.107 -169.03 314.424
-433.639 -156.859 -120.057
-469.577 -161.364 15.4302
-350.08 -391.971 185.125
-427.079 -301.587 101.357
-348.937 -382.748 25.675
-270.998 -12.4325 -322.066
-356.652 -101.285 -245.924
-1.0543 120.335 -423.719
-131.128 74.4581 -402.092
-140.508 -237.511 -310.28
-132.675 -95.3776 -365.695
1.19724 -122.262 -341.408
225.233 275.196 -264.159
133.529 202.969 -365.422
368.905 328.177 -8.37593
322.119 332.58 -131.691
374.671 69.2538 -263.86
377.609 199.421 -219.894
463.457 115.618 -137.269
342.019 -386.314 184.5
289.14 -396.856 327.522
212.005 -482.578 253.36
335.186 -119.357 438.164
333.732 -258.433 399.655
412.104 -166.252 309.434
82.3337 -425.059 491.516
215.769 -356.229 472.703
134.923 -277.823 563.827
79.2731 -542.644 259.648
131.856 -511.269 120.091
-85.5351 -427.035 493.912
-1.13669 -512.057 399.05
-134.958 -514.008 120.743
-81.6662 -545.554 259.633
-217.818 -488.06 254.149
100.55 -476.181 -14.1724
214.447 -447.363 -22.7906
-217.135 -451.82 -21.8902
-104.58 -475.831 -13.4393
102.375 -352.436 -223.646
-0.0172789 -396.954 -133.029
-105.916 -351.873 -223.9
289.7 -366.758 -106.612
341.395 -377.013 24.548
135.672 -237.071 -308.224
209.374 -314.022 -231.242
426.815 -155.066 -117.444
338.881 -238.307 -187.876
351.759 -100.935 -242.003
415.728 -296.665 100.874
476.863 -10.0202 -51.082
462.461 -157.732 11.0962
452.957 -167.131 178.171
447.331 -46.7091 227.071
125.234 -136.547 578.003
253.747 -38.7396 513.934
117.599 42.9033 569.94
-297.724 -401.28 330.765
-221.026 -359.418 476.328
-343.521 -261.165 405.421
-210.842 -316.25 -234.194
-293.994 -369.621 -107.883
-343.965 -240.151 -190.847
268.988 -10.8373 -317.007
127.417 -97.1231 -362.799
127.157 76.3708 -399.395
440.299 96.063 140.985
491.763 117.068 -10.2594
431.548 234.607 63.6504
-306.386 360.635 127.191
-278.188 367.399 197.306
-239.955 405.694 160.851
-328.416 267.775 263.635
-308.931 319.952 233.016
-360.771 271.088 193.069
-185.023 389.533 274.938
-249.959 360.44 257.711
-217.967 344.051 309.942
-378.65 -1.16194 400.422
-378.849 60.4277 376.711
-413.755 21.5114 335.719
-287.686 132.509 438.412
-335.174 99.3043 412.153
-292.522 72.3855 467.247
-394.351 139.797 277.315
-369.996 121.755 347.641
-352.366 182.858 311.844
-39.617 250.814 470.669
-97.5408 229.953 476.847
-61.1087 186.765 522.886
-173.786 309.108 376.13
-138.082 275.231 427.545
-114.875 332.092 379.417
-177.558 135.873 510.7
-159.127 203.242 472.163
-218.194 172.846 461
-299.219 235.892 331.699
-262.854 203.399 402.817
-237.91 281.008 355.966
-180.436 435.881 160.988
-201.073 431.85 96.9822
-123.766 411.172 274.721
-152.301 428.603 222.54
-74.9436 470.75 91.9853
-114.357 455.581 159.366
-48.6545 459.73 155.823
35.6943 250.564 469.825
-1.68159 298.084 430.762
77.2325 373.825 334.824
39.2507 338.35 386.258
110.395 330.274 377.187
-42.2615 338.406 387.004
-81.3513 373.996 336.228
193.815 427.558 94.5242
174.425 431.301 158.877
232.386 399.396 159.222
46.1495 461.391 155.971
109.358 452.923 157.552
72.6543 469.557 92.1417
178.814 385.179 272.843
147.151 424.761 221.496
118.062 408.595 273.93
-45.9761 414.49 279.406
44.0362 416.136 280.641
-0.404163 441.869 219.768
-178.846 438.525 27.3349
-252.546 398.342 20.0322
-45.3041 470.388 24.2396
-110.475 461.301 26.3845
-199.5 397.58 -111.682
-150.87 436.245 -44.3078
-122.186 428.677 -111.11
247.907 394.485 17.3886
175.396 435.91 26.6111
118.974 425.206 -109.717
149.819 433.305 -41.822
197.022 392.31 -109.098
108.775 459.688 27.9356
43.144 470.167 24.9598
-43.4295 301.234 -330.044
-1.01718 344.467 -290.931
41.1613 300.704 -329.543
-81.189 407.224 -185.763
-43.2896 381.659 -240.387
-124.317 369.744 -233.085
120.34 366.949 -231.146
40.7129 380.986 -240.055
77.9753 405.114 -185.032
-1.84608 460.808 -45.4623
39.832 439.016 -118.629
-43.2539 440.555 -118.877
-318.207 374.233 -33.6741
-323.734 356.161 30.6466
-252.558 360.47 -153.141
-292.291 375.381 -93.7494
-421.23 297.45 -43.128
-362.193 344.86 -70.0691
-396.14 297.485 -107.967
-69.4057 232.7 -371.704
-112.302 277.566 -333.568
-253.605 210.048 -301.591
-181.227 246.741 -325.731
-201.223 169.879 -354.386
-155.146 315.246 -283.809
-199.746 341.236 -225.636
-465.631 61.6961 -163.442
-437.894 98.245 -212.666
-418.964 35.5929 -225.235
-425.821 227.541 -155.647
-438.958 161.988 -188.467
-471.588 181.506 -111.653
-337.096 107.256 -301.893
-392.956 137.093 -255.899
-340.096 171.051 -281.521
-290.123 314.881 -207.501
-319.76 247.765 -250.403
-363.821 276.861 -185.397
-360.949 320.238 69.4875
-456.897 248.412 -5.55574
-418.563 288.463 25.7461
-392.824 273.344 105.492
-410.776 225.608 133.733
-473.002 -7.08431 -115.828
-494.794 63.0898 -98.3311
-498.848 63.8769 23.8899
-507.51 67.0439 -34.8185
-489.875 -12.5719 12.3238
-508.567 124.344 -73.97
-493.924 181.116 -44.5874
-439.077 20.1827 274.862
-440.766 -42.461 296.806
-419.549 150.966 186.049
-430.853 84.7451 240.15
-475.961 -43.0479 159.538
-457.273 23.3908 199.442
-474.059 40.4446 108.437
-485.837 181.686 27.6665
-493.672 121.831 58.4176
-463.335 176.029 95.4346
269.109 360.728 194.842
299.936 352.586 121.719
210.591 339.19 307.136
241.622 354.806 254.654
350.039 261.498 185.483
297.497 314.456 229.02
316.17 258.12 260.817
56.3849 185.768 520.63
93.3784 228.913 473.927
213.941 170.566 456.005
155.106 201.638 467.679
173.362 133.745 504.572
133.87 272.957 424.567
168.324 305.652 373.631
401.513 21.6856 332.467
369.337 58.7336 372.495
368.789 -1.17527 396.744
345.468 176.746 310.459
361.492 119.648 343.484
384.87 136.282 275.95
286.302 69.5631 462.447
327.61 96.802 407.288
281.555 129.788 433.412
231.397 275.627 353.471
257.351 199.703 399.274
291.957 229.108 330.824
-62.1114 132.151 557.719
-2.19882 151.337 551.11
-180.215 76.6537 537.951
-122.658 105.347 553.742
-1.98207 31.9507 596.675
-63.7072 69.3976 583.335
-63.6947 5.9457 596.607
-383.582 -77.9711 402.446
-347.104 -38.6546 444.31
-253.378 -129.402 515.646
-304.194 -81.2829 484.534
-297.944 -172.764 481.611
-301.942 0.281126 481.666
-251.918 35.6161 509.366
-1.32894 -269.09 587.271
-71.2764 -245.069 588.269
-69.1861 -310.238 571.235
-64.4116 -83.0797 598.336
-69.1098 -167.247 591.824
-0.757161 -113.404 601.308
-197.587 -249.153 551.221
-138.116 -215.811 579.848
-188.845 -184.708 555.416
-190.916 2.4093 550.195
-192.947 -86.7259 554.523
-125.789 -38.1991 582.322
-451.185 -105.071 274.129
-422.474 -103.475 337.149
-479.689 -105.663 136.096
-472.459 -107.034 207.084
-415.903 -232.517 288.422
-450.147 -168.802 246.399
-441.245 -231.588 216.318
-439.527 -84.6911 -147.912
-466.359 -86.5417 -87.0238
-440.608 -223.065 -20.0506
-457.943 -159.704 -56.53
-419.598 -219.653 -89.1314
-482.429 -92.5579 -20.8944
-486.86 -99.9507 50.0233
-312.159 -430.264 146.638
-356.327 -392.966 103.375
-312.078 -424.863 66.0246
-421.077 -300 176.16
-394.358 -348.875 141.269
-380.426 -344.917 222.131
-378.837 -334.876 -14.7961
-392.902 -345.757 63.4413
-418.828 -295.642 26.0078
-476.321 -171.451 97.0817
-454.778 -236.276 61.4587
-455.808 -238.833 138.554
-373.114 -8.4177 -259.711
-401.342 -53.7163 -213.605
-277.202 69.7946 -331.224
-333.05 34.6141 -299.05
-304.643 -144.152 -273.289
-319.183 -57.4756 -286.168
-262.533 -102.665 -312.767
-1.01724 188.087 -398.124
-68.3662 163.119 -401.306
-62.6258 36.8388 -414.041
-67.5117 96.1205 -420.112
-1.29475 60.149 -423.766
-138.915 133.995 -395.425
-200.769 107.309 -375.272
-94.1458 -254.3 -295.944
-90.6064 -190.83 -327.462
0.274969 -202.908 -306.922
-192.027 -143.53 -333.572
-140.653 -170.976 -338.393
-191.425 -212.622 -308.644
-1.45605 -56.8199 -389.671
-78.6205 -106.514 -360.584
-62.3119 -42.1222 -393.153
-198.536 36.4038 -363.414
[...]
POINT_DATA 642
SCALARS Mean_Curvature double 1
LOOKUP_TABLE default
0.00410026
0.00264141
0.00513756
0.00449595
0.00730813
0.00450038
-0.00522166
0.00548885
0.00305444
0.00476749
0.00420718
0.00500744
-0.00102584
0.0034735
0.00397408
0.00411848
8.09299e-05
0.00336042
0.00363027
0.00265775
0.00684046
0.00393651
0.00364612
-0.000135232
0.00446141
0.00337903
0.00369068
0.00313211
0.00659853
0.00329204
0.00714604
0.00435014
0.00339104
0.00445159
0.00390955
0.00405849
0.0019582
0.00821862
0.00757156
0.00377624
0.00385013
0.0052724
0.00335376
0.00458213
0.00532527
0.00447976
0.00384748
0.00410051
0.00458565
0.0032139
0.00461394
0.00580517
0.00356536
0.00446574
0.00109272
0.00480096
0.00572898
0.00531578
0.00376972
-0.000376757
0.000547225
0.00314946
0.00460821
0.00475126
0.0046593
0.00486551
0.00635551
0.00407968
0.00136533
0.00863105
0.00487738
0.00440966
0.00662786
0.00260003
0.0100192
-0.0010082
0.00277572
0.00419989
0.00252612
0.00403994
0.00325781
0.00438005
0.00400719
0.00451129
0.00541855
0.00519126
0.00179849
0.0039709
0.00151604
0.00212817
0.00548674
0.00326768
0.00326778
0.00437134
0.00198462
0.00344288
0.00504119
0.00376757
0.000612176
0.00343614
0.00830614
0.00592433
0.00813137
0.00601284
-0.00552155
-2.89352e-05
0.00390473
0.00576283
0.00448008
0.00625571
0.005088
0.00564118
0.00370528
0.00375607
0.00249371
0.00320141
0.00406195
0.00345034
0.00477607
0.004857
0.00637211
0.00542406
0.00358795
0.00513838
0.00444789
0.00352196
0.00578206
0.00392995
0.00249172
0.00290092
0.00225737
0.00135408
0.00287571
-0.00892556
0.00201346
0.00464349
0.00369275
0.00756938
0.00385785
0.00444502
0.00432057
0.00396373
0.00506265
0.00189965
0.00424117
0.00363031
0.00244534
0.00276155
0.00476023
0.00493797
0.00400521
0.00461613
0.00357095
0.00342363
0.00449146
0.00427274
0.00101594
0.00556424
0.00626274
-0.00141859
0.007732
0.00624109
0.003467
0.00495451
0.00513992
0.00396644
0.00538801
0.00358815
0.00544587
0.00542973
0.00437341
0.00416733
0.00436223
0.0042399
0.00416209
0.00449476
0.00443983
0.00302153
0.00424677
0.00250145
0.00221241
0.00238431
0.00489112
0.0033797
0.00419538
0.00368254
0.00345559
0.00179215
0.00256766
0.00108825
0.00236871
0.00274311
0.00538911
0.00382337
0.00561555
0.00551108
0.00683373
0.00556821
0.00227254
0.00248636
0.00312779
0.00334922
0.00383418
0.00349943
0.00349878
0.00312701
0.00311707
0.00510614
0.00482369
0.00418813
0.00451467
0.0065186
0.00538586
0.00549379
0.005303
0.00292862
0.00485481
0.00190247
0.00384372
0.000390675
0.0041985
0.00439428
0.00145216
0.00286275
0.0041288
0.00046667
0.00437295
0.00376788
0.00311452
-0.000261095
0.00460827
0.00460286
0.00466507
0.00459713
0.00491851
0.00373368
0.00424978
0.00459158
0.00435218
0.0045567
0.00372264
0.00343926
0.00380476
0.0040195
0.00788954
-0.000428487
0.00135184
0.00703592
0.00853393
0.00830879
0.00427968
0.0044547
0.00468789
7.12197e-05
0.0043966
0.0033697
0.00444635
0.00272528
0.00416235
0.0075337
0.00440303
0.00469105
0.00480701
0.00326483
0.00755456
0.00788732
0.00528974
0.00575394
0.00534063
0.00498057
0.000920507
0.00620806
0.00570359
0.00162181
0.000391464
0.00295877
0.00503584
0.00270748
0.00687816
-0.000492098
0.0113663
0.00761529
0.00383586
0.00396633
-0.000348641
0.0027611
0.00223255
0.00158381
-0.000897774
0.00572741
0.00740059
0.00590522
0.0047394
0.0027237
0.00417119
0.0054441
0.00114325
0.00538569
0.00178304
0.00461305
0.00231499
0.0027346
0.00186111
0.00296342
0.00413973
0.0033629
0.00426409
0.00434261
0.00469107
0.00326208
0.00448461
0.00362961
0.00432323
0.00438812
0.00408435
0.00265768
0.00267316
0.00168931
0.00555538
0.00515785
0.00387807
0.00518293
0.00543366
0.00558711
0.00545889
0.00480448
0.00425005
0.000303925
0.0039314
0.00303203
0.00454323
0.00392726
0.00477903
0.00510152
0.00506499
0.00385806
0.00166701
0.00304977
0.0087246
0.00708447
0.0019848
0.00301936
0.00263476
0.00338154
0.00471247
0.00412102
0.00203195
0.00639842
0.0029592
0.00329541
0.00346585
0.00279014
0.0030155
0.00213955
0.00488586
0.00320544
0.00435203
0.00402025
0.00375169
0.00518599
0.00464965
0.00432449
0.00476096
0.00316238
0.00366917
0.00460869
0.0040159
0.00491256
0.00455668
0.0053233
0.00394808
0.00160163
0.00305748
0.0043976
0.00328158
0.00186326
0.0036458
0.00418713
0.00323398
0.00441398
0.00803858
0.00637875
0.00633832
0.00797598
0.00181866
0.00242041
-0.0025788
0.0034532
0.00617739
0.00456624
0.00509081
0.00044491
0.00503757
0.000285521
0.00122749
0.00265844
0.00452955
0.00459016
0.00209291
0.00444287
0.00272796
0.00422091
0.00192398
0.00204922
0.00771479
0.0042821
0.00827393
0.00828992
0.00591123
0.00557241
0.00507603
0.00688384
0.00613897
0.00512482
0.00582397
0.00644784
0.00393943
0.00507178
0.00461811
0.00510192
0.00500073
0.00537093
0.00336505
0.0039218
0.0037308
0.00343208
0.00340538
0.00379696
0.00710399
0.00403093
0.00512751
0.0039968
0.00272889
0.00406453
0.00407935
0.00365452
0.000747222
0.00303143
0.00361913
0.00370554
0.00533351
0.00404089
0.00397284
0.00461163
0.00449027
0.00435851
0.00763164
0.00503004
0.00568353
0.00349934
0.00419105
0.00464249
0.00213171
0.00290787
0.00444578
0.00674759
0.00459452
0.00347455
0.00414052
0.00530505
0.00531588
0.00438684
0.0054161
0.00464676
0.00569175
0.00421259
0.00255712
0.00235312
0.00211638
0.00389811
0.00416491
0.00497113
0.00595108
0.006344
0.00417382
0.0075764
0.00804612
0.00768804
0.00295761
0.00355151
0.000200314
0.00631522
0.00397652
0.0061074
0.00738781
0.0037701
0.00486499
0.00624791
0.00725863
0.00518276
0.0048206
8.65102e-05
0.00733148
-0.00884487
0.0071322
0.00344876
0.00741798
0.00825131
0.00714558
0.00723628
0.00263052
-0.00557282
0.00436358
0.00443043
0.00349721
0.00424415
0.00389309
0.00431383
0.00371942
0.00425999
0.00455144
0.00297635
0.00697455
0.00444585
0.00517999
0.00369295
0.00789766
0.00428864
0.00346406
0.00431378
0.00189257
0.0041157
0.00354009
0.00344251
0.00292716
0.00335694
0.00440213
0.00434515
0.00454438
0.0045101
0.00469631
0.003406
0.00468076
0.00452943
0.00410361
0.00189706
0.00366787
0.00503062
0.00477403
0.000506006
0.00495245
0.00243693
0.00536079
0.00281836
0.00346009
0.00401624
0.00206867
0.00551102
0.00123648
0.00426528
0.00143978
0.00546326
0.00634586
0.000938487
0.00707254
0.00123684
0.0054839
0.00476282
0.00428852
0.00483353
0.0041848
0.00147167
0.00556958
0.00533746
0.00566672
0.00486177
0.00311424
0.00281814
0.00322056
0.00180316
0.00345139
0.00485144
0.00416995
0.00364342
0.00361144
0.0043335
0.00541691
0.00442168
0.00453218
0.00452802
0.002014
0.00373539
0.00409961
0.00562352
0.00363662
0.00457711
0.00446254
0.00386122
0.00609209
0.00566327
0.00877771
0.00718635
0.00374479
0.0033091
0.00433812
0.00388669
0.00380022
0.00343191
0.00407315
0.00419992
0.00351703
0.00356972
0.00406367
0.00404034
0.00445752
0.00440283
0.00340172
0.00326079
0.00199787
0.00469426
0.00402166
0.0035951
0.00366944
0.00317142
0.00580151
0.00296876
0.00311812
0.00794762
0.00684921
0.00815867
0.00453596
0.00230854
0.000309755
-0.00101683
0.00354929
0.00166994
0.000804604
0.00290169
-0.000415635
0.00667227
0.00833937
0.00963416
0.00713662
0.00242876
0.00321545
0.000959368
0.00319067
0.00524844
0.00598177
0.0054608
0.00601538
0.00551164
SCALARS CoVolArea double 1
LOOKUP_TABLE default
4526.04
4547.61
4074.95
3994.52
4179.37
3662.58
5074.19
4264.73
4135.18
3543.13
4303.98
3602.84
6460.75
4876.18
4635.07
4553.6
5379.74
5827.18
5862.66
5665.41
5392.69
5995.79
4801.92
6311.24
5070.91
5017.36
5159.72
5389.26
4322.78
5041.87
5055.4
5387.96
5152.96
5100.23
5618.77
5711.98
5305.08
3985.63
4002.94
4933.52
5005.68
5355.15
5211.31
4878.52
4232.78
4340.88
5195.12
4478.96
4631.05
5428.31
4439.34
4962.62
4655.23
4598.73
5478.82
4488.31
4860.56
4145.72
5530.89
5913.38
5590.01
5640.56
5173.15
5637.12
5107.37
5593.63
4468.74
5351.85
6542.06
4742.28
5762.65
4594.73
4834.13
5276.49
4182.53
6553.21
4765.83
4869.94
5125.37
4480
5288.03
4232.19
4929.56
4159.87
4902.52
4130.17
5150.82
5635.87
5493.23
5972.43
4894.99
5149.06
4935.25
4959.63
5487.93
5090.3
4970.5
4702.86
6517.49
5252.61
4703.94
5136.98
3633.27
5384.36
7031.32
6484.13
5349.31
4196.8
5406.94
4452.47
5552.94
4665.19
4909.73
5500.76
4934.61
5003.42
5340.95
4666.33
5413.87
5563.2
4750.68
5086.57
5122.34
5428.34
5888.64
5110
5130.56
5044.04
5614.71
4757.74
4795.69
5802.3
4224.84
6936.75
4327.48
4823.2
4619.67
3722.67
4761.77
4722.13
5004.28
5118.49
4864.35
5128.82
5090.76
5193.7
4791.7
5891.52
5293.98
4989.02
5631.47
5761.61
5472.31
4842.47
5011.44
5117.57
6237.22
5569.19
5133.89
6424.73
4144.15
4530.96
5272.4
4620.33
4591.57
5438.12
4451.81
5228.29
4076.86
4144.89
4765.48
4295.45
4355.16
4298.53
4963.5
4296.3
4300.52
5443.89
4474.15
5670.75
4682.95
4762.84
4267.48
5019.83
4719.56
4466.55
4547.83
4909.46
5320.53
6211.88
6201.92
6018.44
4485.8
5112.84
4669.68
4212.71
4649.48
4444.93
5439.06
4676.06
4786.76
4966.4
4754.95
4406.32
4803.74
5135.01
5078.06
4451.82
4662.96
5348.65
4403
4526.26
4005.81
4208.95
4549.03
5874.13
5707.17
6040.43
5657.42
5796.1
5438.73
4877.7
5773.68
5682.62
5878.72
5553.52
5353.34
5979.28
5614.01
5722.89
4773.59
5435.4
5096.01
5214.11
5054.15
5688.42
5178.99
5232.74
5203.35
5135.55
5675.78
6266.78
6353.05
6310.9
4888.65
5358.09
6009.41
5089.81
4434.86
4470.99
5673.82
5202.26
5262.84
6604.03
5787.59
5505.64
5559.67
6227.07
4683.27
4703.12
4865.07
6012.79
5217.67
5126.29
4615.41
4785.78
5775.94
6702.71
6789.39
6488.82
5383.12
4917.43
4646.16
5135.45
6018.36
5091.86
4657.18
5223.42
4400.29
5523.68
4341.41
4983.43
4786.98
4386.4
6814.66
5751.08
5470.92
6075.97
6522.7
4976.27
5419.39
5813.2
4591.98
5143.47
4688.78
4027.86
5375.94
4586.3
5620.5
4276.01
4757.25
5197.33
4874.36
4591.64
4655.34
4941.88
4182.28
4165.16
4108.7
5400.28
4191.08
5035.93
4156.84
4171.02
4818.29
5890.42
5950.22
6030.29
4144.12
4008.77
4969.59
4230.12
4240.78
4195.94
4956.49
4679.21
4690.36
6058.77
5141.02
5047.8
4561.68
5046.61
4884.62
5037.34
5014.25
5716.77
5545.55
5466.91
4421.2
4745.6
5557.85
6081.98
6850.99
6281.58
4558.21
4600.1
5424.23
4606.53
4995.07
4819.02
5369.63
5334.42
5299.46
5528.08
5029.43
4819.38
5473.1
5782.34
4926.02
4724.04
4581.56
5228.95
4748.85
5036.72
4679.66
4612.85
5231.22
5774.15
5810.52
5625.79
5166.66
5329.28
5735.51
5156.06
4944.77
5508.88
5865.24
5169.47
5221.47
4814.36
4466.36
4071.92
4907.22
5381.55
4993.9
5715.8
7218.49
5294.17
4328.98
4267.96
4835.67
5421.52
4955.09
6804.51
6382.47
6907.89
5232.04
5158.23
6178.98
5575.82
5310.77
5705.32
6225.97
5026.72
4649.52
5473.38
4385.17
4291.14
4962.57
5794.51
4585.75
4603.61
4464.63
5587.86
4781.24
4577.3
4883.57
5083.08
5701.56
6549.54
6304.82
6573.57
4805.2
5158.9
5077.71
5507.4
5096.43
4798.12
4782.43
4942.73
5457.12
4450.62
4945.77
4426.82
5254.09
5032.08
5224.02
4773.71
4883.35
5381.11
5259.33
5448.89
5036.63
5702.37
5392.41
5352.48
4297.31
5026.31
5089.73
6194.09
6051.35
6195.35
5284.63
5132.9
5561.82
4750.78
4734.32
4902.78
5041.5
5213.67
5427.93
5981.39
5479.28
5387.19
5453.43
5956.87
5253.31
5352.7
5302.55
4978.78
4858.05
4681.69
4952.28
4860.9
5661.86
6145.65
6159.71
5575.62
4951.58
4767.48
6644.58
4620.3
4259.95
4330.26
4192.04
4762.59
4894.92
4264.91
4274.38
4286.82
4666.86
6743.48
4988.34
6181.36
5092.32
4722.19
5344.49
3451.78
3488.87
5452.41
4863.61
8623.43
7257.6
7109.72
4755.8
4605.41
4786.42
4568.8
4543.73
4578.28
4901.55
4833.04
3614.18
4813.31
4083.02
4278.76
3729.62
4546.71
5128.39
5008.67
5137
5009.5
4702.61
4632.43
4877.18
4809.99
4962.46
5458.79
5439.83
5468.42
4658.94
5119.94
4533.86
4583.21
4982.64
4956.52
5090.81
5377.48
4983.7
5044.31
4630.38
5252.78
4337.67
4373.32
5094.68
4511.33
5131.12
4517.12
5398.45
5735.74
5947.56
5607.73
4967.82
5509.72
4663.6
5438.52
5576.91
4404.68
4858.43
4271.38
4926.03
5900.4
4128.84
4931.14
4177.88
4271.7
4998.7
6667.29
6035.37
6307.74
5295.08
5655.07
5081.81
5231.7
5649.84
5479.82
5316.53
5206.09
5473.71
5833.95
5171.61
5529.24
5026.4
5006.05
5279.84
6377.82
6301.65
6320.31
3607.87
4534.59
3653.85
4010.11
4994.34
4875.65
5084.45
4771.47
4783.64
4895.26
5221.32
5093.13
4928.5
4836.76
5168.67
5615.96
5619.09
5616.08
4969.77
5782.66
5308.64
4883.66
5466.64
5423.16
5010.06
5116.54
4347.3
5361.54
5183.06
5236.22
4825.16
4361.89
4844.02
7093.26
6693.83
6846.66
4775.94
5980.8
5904.59
5566.2
6568.62
4486.86
4672.34
4177.98
4257.14
4922.92
4900.17
5748.56
4782.73
4326.15
4656.65
5370.26
4831.08
5677.17
SCALARS SignedDistance double 1
LOOKUP_TABLE default
237.07
251.052
236.368
241.761
197.507
262.912
328.519
194.11
236.551
262.003
229.184
250.01
271.867
257.27
256.586
261.303
239.799
222.011
215.739
228.932
197.98
255.462
263.471
280.819
236.02
233.241
238.351
233.882
274.907
250.387
212.983
233.349
245.185
245.16
197.63
192.055
294.959
283.187
278.025
252.79
245.968
262.977
254.411
262.048
238.637
251.021
264.066
262.289
260.459
264.091
258.609
244.131
230.235
262.552
260.898
234.482
242.723
247.651
228.698
234.333
242.943
227.696
198.409
210.792
201.826
204.589
235.775
200.186
208.933
203.423
184.915
217.937
256.18
241.639
246.386
271.165
258.169
273.094
271.131
264.618
270.019
271.798
271.302
259.671
241.902
242.83
240.232
242.927
225.558
230.25
208.293
244.676
241.33
235.177
243.931
226.153
231.123
236.685
241.15
237.301
223.326
243.661
291.227
280.94
315.121
216.132
204.559
244.623
207.883
225.738
193.684
211.502
236.772
227.75
227.877
249.322
240.417
253.526
183.527
210.76
216.77
233.957
264.671
178.205
179.023
268.644
236.616
223.948
293.799
256.14
256.178
299.634
295.007
327.836
301.267
246.102
243.521
282.854
257.793
241.686
244.157
242.94
242.697
248.815
252.491
259.786
270.602
234.655
248.758
249.69
217.167
200.554
228.209
258.825
242.631
238.923
248
275.893
245.121
281.822
255.408
267.08
243.654
242.76
233.247
270.462
256.504
267.594
247.465
249.492
257.261
250.321
256.339
256.112
260
257.512
253.359
267.949
262.79
268.817
265.34
263.688
259.118
259.994
260.701
258.227
259.618
265.078
264.844
268.949
266.459
264.573
229.872
229.58
248.813
237.792
235.684
233.924
241.409
265.727
263.354
260.863
260.668
262.339
260.988
259.316
238.479
236.768
244.143
241.854
234.268
234.595
254.217
242.44
250.736
258.238
259.438
248.864
228.492
240.544
235.481
225.405
225.043
226.276
218.263
249.813
233.646
223.146
230.181
231.635
227.2
232.65
194.402
198.295
195.578
211.53
204.793
205.585
210.389
206.307
214.525
234.081
218.913
218.625
243.296
253.715
228.446
228.679
218.669
218.837
191.839
195.969
195.616
212.13
201.273
209.881
200.501
210.282
215.341
208.303
221.464
179.613
183.724
185.341
222.77
201.595
201.681
213.031
199.637
188.24
260.22
228.663
242.834
269.028
275.071
232.651
223.936
259.458
245.367
247.268
222.289
217.001
260.234
254.1
270.27
266.521
260.015
264.994
267.255
244.492
268.192
270.627
255.401
260.869
265.477
260.153
281.454
269.53
280.879
262.609
267.222
270.211
269.883
265.658
265.595
266.05
267.185
265.367
260.159
276.582
270.802
277.077
260.943
265.467
267.093
272.025
273.038
276.784
248.887
252.553
252.216
249.483
235.325
239.287
233.196
244.58
245.653
239.753
241.201
244.247
246.623
249.793
217.434
218.861
202.076
236.859
226.913
233.076
227.292
231.439
239
245.846
242.056
239.119
250.643
246.083
252.314
252.368
238.476
241.837
240.009
229.816
232.097
241.798
237.307
239.303
238.798
248.204
228.469
230.485
236.454
231.768
228.163
229.066
236.884
232.916
236.022
249
238.659
235.517
234.295
231.363
242.153
233.987
243.377
237.997
245.622
198.649
205.171
258.037
236.176
247.81
219.145
235.284
305.02
303.217
324.33
262.386
286.16
267.11
298.092
298.745
293.702
253.943
273.568
251.509
199.921
198.337
218.883
206.493
218.515
208.642
220.816
262.528
247.11
201.722
225.693
229.573
227.527
228.955
230.327
215.313
226.477
206.143
206.923
224.33
201.78
196.742
192.097
209.89
194.758
201.641
237.176
230.623
236.039
237.109
231.427
239.812
216.034
226.228
214.305
255.934
252.176
261.39
240.597
249.923
248.212
249.544
249.56
243.977
185.325
193.117
201.256
201.391
194.45
188.588
233.877
209.289
228.147
232.786
229.273
219.765
240.101
247.446
207.45
231.995
280.438
251.205
263.276
181.648
174.274
184.376
173.627
182.929
176.891
188.114
247.553
240.473
231.891
268.289
253.548
285.489
208.835
228.53
204.752
211.54
210.689
243.829
259.694
250.008
297.313
283.229
263.125
277.9
289.544
247.073
265.462
293.675
283.834
268.616
287.415
303.625
308.672
327.378
319.603
296.405
310.009
289.57
294.015
318.121
301.509
325.429
320.428
312.551
247.125
243.126
254.143
249.778
244.518
244.501
243.495
296.106
290.547
254.008
268.846
262.3
279.845
264.937
236.609
241.218
236.579
244.249
243.879
246.098
249.057
245.117
246.707
250.24
247.653
244.608
239.198
246.959
242.178
238.844
243.335
239.799
239.629
254.533
246.906
253.654
244.442
251.974
264.804
267.602
251.824
253.869
272.12
266.534
267.52
253.559
262.785
250.346
222.422
244.351
237.52
228.696
240.14
253.884
256.27
254.137
248.57
245.377
253.101
238.407
244.184
256.459
258.962
245.436
251.897
246.46
226.307
205.264
217.087
223.994
226.935
189.21
216.402
200.161
187.738
192.893
240.912
232.612
238.314
241.507
229.961
208.274
217.9
221.636
297.434
270.737
286.023
276.571
253.3
243.308
238.002
239.729
247.779
253.851
235.101
242.802
239.338
237.611
238.001
248.438
240.173
244.703
239.532
250.05
244.571
238.431
243.514
296.006
293.836
295.294
279.838
260.284
207.121
241.952
223.073
237.893
258.536
251.727
270.632
254.068
272.566
275.005
277.483
278.4
280.994
235.408
233.023
233.239
254.646
268.129
270.796
284.402
278.874
253.601
241.28
275.885
257.648
280.907
