# vtk DataFile Version 4.2
vtk output
ASCII
DATASET POLYDATA
POINTS 642 double
-385.125 590.389 98.2097
384.563 589.523 98.1923
-385.179 -655.884 98.3235
384.705 -655.153 98.3373
-0.00965266 -421.106 726.696
-0.0114483 351.025 719.275
-0.0120268 -414.338 -519.177
-0.0045499 354.892 -528.818
624.654 -32.5184 -287.792
620.417 -32.7107 481.747
-625.754 -32.5092 -288.459
-621.635 -32.711 482.478
-589.267 331.575 323.223
-364.995 192.864 688.894
-225.76 558.383 463.451
225.561 557.922 463.167
-0.00543449 699.839 98.2299
227.067 561.798 -269.198
-227.25 562.236 -269.47
-368.104 194.816 -497.24
-597.405 336.538 -129.927
-731.113 -32.592 98.1489
364.587 192.61 688.241
588.044 330.808 322.764
-367.901 -260.191 693.652
-0.00639462 -32.7032 830.952
-591.94 -398.51 -127.823
-592.728 -399.055 324.703
-0.00823428 -32.5474 -636.44
-365.478 -258.502 -493.022
596.124 335.756 -129.443
367.761 194.624 -496.734
591.738 -398.456 324.329
367.316 -259.859 692.757
227.922 -629.527 467.173
-228.083 -629.923 467.419
-0.0144304 -766.599 98.4623
-225.571 -623.13 -266.658
225.465 -622.861 -266.493
365.171 -258.324 -492.533
591.214 -398.063 -127.563
730.165 -32.6067 98.1525
-507.37 480.704 215.605
-429.242 470.075 408.677
-317.685 599.019 288.543
-512.82 84.6309 605.095
-501.713 277.161 526.727
-629.132 156.836 414.721
-117.121 473.132 610.05
-309.763 395.635 599.807
-189.814 284.175 728.428
-119.116 663.712 290.616
-200.293 672.508 98.2467
117.056 472.932 609.845
-0.00678361 587.621 481.726
200.239 672.362 98.2373
119.035 663.352 290.515
317.295 598.285 288.321
-119.362 665.446 -94.664
-318.515 600.417 -92.5668
318.516 600.458 -92.5649
119.281 665.037 -94.5462
-118.338 478.473 -418.985
-0.00696002 593.093 -288.691
118.287 478.314 -418.826
-433.589 474.972 -215.363
-511.575 484.916 -20.2485
-191.454 286.989 -537.264
-312.911 399.871 -408.227
-637.121 159.31 -222.193
-508.273 281.314 -335.768
-517.71 85.8656 -413.312
-626.048 354.378 98.1246
-706.934 -32.4937 -102.623
-701.845 161.286 -21.7909
-695.614 159.599 216.985
-702.463 -32.7407 297.81
428.517 469.26 408.167
506.389 479.719 215.364
189.643 283.924 727.93
309.457 395.236 599.343
628.045 156.523 414.187
501.043 276.746 526.162
512.141 84.4752 604.444
-192.321 86.3653 794.534
-0.00955303 167.299 802.431
-513.501 -150.261 605.806
-384.627 -32.7083 720.358
-0.00488115 -233.739 805.597
-192.636 -152.057 795.545
-191.647 -352.684 734.442
-695.826 -224.954 217.245
-631.105 -222.873 415.703
-631.736 -222.965 -219.469
-695.835 -224.91 -20.7356
-508.598 -547.345 216.066
-623.162 -417.995 98.2808
-507.967 -546.653 -19.2997
-385.3 -32.5263 -524.798
-514.139 -150.211 -409.794
-0.00517802 168.611 -610.295
-193.382 87.0852 -601.756
-189.817 -349.447 -531.576
-191.964 -151.364 -596.604
-0.00553353 -231.434 -602.234
312.655 399.534 -407.85
191.343 286.826 -536.942
510.657 484.001 -20.0381
432.916 474.204 -214.883
516.814 85.6473 -412.445
507.354 280.748 -334.993
635.574 158.852 -221.416
507.967 -546.716 215.924
431.798 -538.441 410.722
319.149 -667.398 289.594
512.795 -150.091 605.117
504.397 -344.357 529.117
629.932 -222.524 415.116
118.686 -545.48 617.152
313.241 -465.825 605.452
191.554 -352.541 734.158
119.886 -734.151 292.162
199.992 -736.932 98.4199
-118.745 -545.673 617.35
-0.00467008 -661.629 487.139
-200.136 -737.4 98.4157
-119.93 -734.382 292.221
-319.33 -667.723 289.686
118.712 -726.298 -93.2996
316.855 -662.594 -91.5006
-317.125 -663.108 -91.6418
-118.766 -726.522 -93.3585
117.223 -538.429 -413.493
-0.00767986 -649.595 -283.249
-117.275 -538.592 -413.657
429.493 -535.581 -212.367
507.219 -545.904 -19.1417
189.605 -349.102 -530.88
310.421 -461.785 -404.235
631.01 -222.751 -219.107
503.055 -343.375 -331.311
513.62 -150.101 -409.294
621.997 -417.294 98.2794
705.218 -32.5133 -102.141
695.144 -224.707 -20.6446
694.212 -224.511 216.988
700.855 -32.7468 297.344
192.541 -152.005 795.263
384.303 -32.7064 719.839
192.15 86.2715 793.992
-432.328 -539.028 411.09
-313.521 -466.193 605.88
-505.225 -344.859 529.808
-310.608 -462.03 -404.522
-429.847 -535.982 -212.615
-503.527 -343.664 -331.708
385.237 -32.5228 -524.699
191.774 -151.262 -596.001
193.288 87.0449 -601.478
693.661 159.049 216.66
700.012 160.784 -21.4964
624.652 353.541 98.123
-450.703 541.099 157.519
-418.068 547.519 254.113
-354.846 600.943 194.374
-515.931 406.414 369.336
-473.239 480.733 314.602
-554.027 410.493 271.251
-274.365 584.75 378.858
-377.468 540.42 351.427
-331.675 521.192 440.279
-572.668 26.542 548.091
-578.588 122.74 515.26
-631.441 63.0832 451.953
-438.861 238.311 614.086
-512.485 183.298 570.766
-443.141 140.428 652.319
-614.782 246.769 371.47
-571.254 219.702 474.599
-552.075 308.34 428.914
-59.1279 416.084 669.68
-155.26 383.773 676.224
-95.8334 321.08 730.053
-270.98 483.064 536.98
-215.776 439.301 610.179
-172.95 520.721 540.815
-280.064 241.093 714.48
-252.349 343.511 669.438
-341.343 298.257 650.931
-470.988 378.363 472.132
-411.038 341.262 569.334
-374.224 438.811 509.576
-262.524 644.645 194.699
-295.542 637.891 98.2575
-174.751 619.183 380.631
-220.629 638.348 291.66
-101.166 693.609 98.235
-161.262 675.436 195.52
-60.3846 690.617 195.596
59.0919 415.975 669.54
-0.0103999 479.526 616.608
114.183 580.497 477.311
59.1872 536.104 550.342
172.837 520.423 540.575
-59.2171 536.22 550.437
-114.234 580.663 477.415
295.303 637.415 98.2439
262.256 644.005 194.595
354.36 600.121 194.245
60.3656 690.585 195.588
161.151 675.028 195.452
101.137 693.458 98.2336
274.07 584.134 378.577
220.434 637.812 291.505
174.622 618.778 380.457
-60.2518 634.737 390.333
60.2339 634.721 390.329
-0.00860898 672.076 292.953
-262.632 644.953 1.72905
-354.936 600.855 2.04569
-60.4459 691.635 0.707119
-161.381 676.043 0.866008
-275.415 586.934 -183.475
-221.036 639.609 -95.5817
-175.427 621.854 -185.403
354.638 600.38 2.09954
262.496 644.618 1.77342
175.315 621.477 -185.242
220.891 639.147 -95.4423
275.175 586.416 -183.227
161.327 675.835 0.905239
60.4216 691.491 0.731244
-59.7717 421.121 -479.507
-0.00515955 485.216 -425.869
59.7537 421.068 -479.441
-115.058 585.279 -283.861
-59.7693 541.81 -358.456
-174.53 525.829 -348.502
174.415 525.521 -348.257
59.7495 541.742 -358.403
115.002 585.059 -283.729
-0.0109698 674.917 -97.3107
60.4927 637.971 -195.352
-60.5255 638.146 -195.425
-421.013 551.327 -58.7495
-452.766 543.594 38.4966
-334.394 525.494 -246.599
-380.224 544.343 -156.749
-560.322 415.478 -76.867
-477.493 485.202 -120.046
-522.042 411.435 -176.087
-96.7036 324.398 -539.239
-156.941 388.305 -485.888
-344.746 301.528 -459.708
-254.944 347.447 -478.772
-282.381 243.41 -522.951
-218 444.19 -419.015
-273.463 487.636 -344.427
-638.085 64.2274 -259.124
-585.573 124.717 -323.72
-577.455 27.2049 -355.261
-559.939 313.249 -237.098
-578.676 223.026 -282.927
-623.294 250.672 -178.73
-447.675 142.265 -461.323
-518.391 185.837 -379.601
-443.855 241.479 -423.344
-378.589 444.113 -317.787
-416.356 346.064 -378.774
-477.41 383.888 -280.723
-516.529 489.963 98.0957
-620.079 350.687 -17.2592
-574.939 424.324 38.335
-572.623 422.457 157.646
-615.553 347.933 212.628
-672.982 -32.508 -198.393
-681.782 64.5162 -166.005
-726.687 65.3381 37.4831
-712.868 65.3989 -64.1387
-725.246 -32.4924 -2.8578
-676.352 162.33 -124.125
-658.282 252.592 -78.1889
-674.41 63.3143 359.709
-668.428 -32.7222 392.908
-649.543 248.78 272.159
-667.766 159.812 317.757
-723.209 -32.7095 198.944
-704.703 64.1583 258.676
-721.531 64.5926 158.28
-673.038 261.943 37.4428
-709.239 163.405 98.0889
-670.763 260.964 158.565
417.403 546.628 253.871
449.933 540.131 157.407
331.247 520.519 439.857
376.922 539.626 351.074
552.831 409.542 270.859
472.388 479.843 314.22
514.782 405.453 368.743
95.7736 320.94 729.805
155.15 383.532 675.884
340.966 297.905 650.341
252.11 343.179 668.926
279.738 240.786 713.788
215.611 438.978 609.824
270.715 482.605 536.594
630.278 62.9183 451.322
577.679 122.498 514.62
571.801 26.4582 547.434
551.34 307.87 428.491
570.396 219.333 474.041
613.837 246.339 371.072
442.607 140.216 651.668
511.763 182.997 570.115
438.307 237.968 613.443
373.72 438.197 509.049
410.567 340.84 568.813
470.285 377.746 471.594
-96.2706 229.339 774.398
-0.0103659 262.164 767.346
-282.174 141.889 749.624
-193.153 187.623 768.445
-0.00921291 68.3526 823.819
-97.2129 128.442 805.932
-97.4134 27.6888 821.916
-573.163 -92.0067 548.47
-520.058 -32.7021 612.169
-380.159 -147.314 713.179
-453.679 -92.1185 669.013
-445.119 -206.748 654.864
-453.372 26.6376 668.62
-379.597 81.6056 712.214
-0.00473755 -330.462 773.642
-97.0258 -296.831 779.531
-96.858 -390.4 736.867
-97.5038 -93.1698 822.568
-97.5696 -194.517 808.357
-0.00596293 -133.92 824.625
-282.571 -308.992 719.95
-194.647 -254.801 773.5
-283.94 -208.485 753.626
-292.271 27.551 766.051
-292.624 -93.0958 766.85
-194.995 -32.7064 804.086
-675.83 -128.955 360.228
-632.403 -128.654 452.474
-721.911 -129.903 158.493
-706.675 -129.81 259.195
-617.877 -313.612 372.884
-670.144 -225.895 318.605
-652.271 -315.342 273.108
-633.923 -128.724 -256.79
-677.215 -128.997 -164.254
-651.854 -315.112 -76.4656
-670.829 -226.023 -122.323
-617.529 -313.365 -176.167
-707.639 -129.818 -62.941
-722.583 -129.948 37.9242
-451.266 -607.223 157.761
-515.147 -554.001 98.2916
-450.965 -606.797 38.9073
-615.491 -413.264 212.871
-571.834 -487.251 157.774
-556.076 -477.495 272.088
-555.242 -476.775 -75.2256
-571.565 -487.026 38.8282
-615.053 -412.98 -16.2264
-705.462 -227.643 98.2598
-668.449 -325.294 37.9726
-668.641 -325.388 158.593
-522.863 -32.5193 -418.34
-575.002 -92.014 -353.349
-381.993 82.4577 -519.473
-456.239 27.1743 -475.543
-443.914 -206.062 -456.68
-454.354 -92.0129 -473.197
-379.988 -147.033 -516.207
-0.00494944 264.609 -576.123
-96.9676 231.288 -582.704
-97.7893 28.0384 -628.206
-97.831 129.532 -613.866
-0.00521459 68.9732 -631.092
-194.436 189.14 -576.309
-284.178 143.155 -557.585
-95.8168 -385.747 -532.133
-96.078 -293.804 -575.541
-0.0104477 -325.438 -566.172
-282.104 -207.142 -552.723
-192.867 -252.561 -570.583
-280.187 -306.529 -518.009
-0.00778436 -133.482 -627.277
[...]
POINT_DATA 642
SCALARS Mean_Curvature double 1
LOOKUP_TABLE default
0.0029339
0.0028982
0.00305219
0.00303542
0.0030922
0.00309038
0.002612
0.00308725
0.003129
0.00306415
0.00313259
0.00308118
0.00245682
0.00265444
0.00268957
0.00268788
0.00259716
0.00264842
0.00264952
0.00259262
0.00264226
0.00254784
0.00265794
0.00243063
0.00283205
0.00262553
0.00265429
0.00263916
0.00271855
0.0026575
0.00264111
0.00261969
0.00264929
0.00278353
0.00267207
0.00267656
0.00276324
0.0026292
0.00264102
0.00265955
0.00266064
0.00263528
0.00251793
0.00271694
0.00269592
0.00267945
0.00267638
0.002677
0.00266568
0.00263765
0.00270214
0.00272847
0.00267506
0.00266558
0.00257789
0.00271299
0.00271213
0.00269574
0.00268993
0.00259887
0.00271367
0.00266378
0.00268295
0.00270352
0.0026856
0.00270438
0.00274752
0.00268307
0.00254728
0.00270021
0.00270244
0.00273521
0.00273991
0.0027322
0.00276458
0.00273654
0.00266356
0.00270987
0.00249725
0.00269507
0.00264461
0.00267876
0.00268082
0.00268325
0.0027168
0.00269459
0.00255359
0.00266387
0.00261411
0.0024978
0.00264628
0.00268133
0.00263735
0.00267507
0.00263051
0.00262258
0.00270442
0.00266765
0.00254409
0.002611
0.00263148
0.00274687
0.00273248
0.00256907
0.00250317
0.00257091
0.00268171
0.00273849
0.00270237
0.00273482
0.00270283
0.00269389
0.0026603
0.00270098
0.00277927
0.00258429
0.00266712
0.00263762
0.00269649
0.00269521
0.00266402
0.0027219
0.00257518
0.00269812
0.00270324
0.00257809
0.00272199
0.00273879
0.0027065
0.00264947
0.00264586
0.00269474
0.00275745
0.00220379
0.00275498
0.00269397
0.00266045
0.00266926
0.00269514
0.00267814
0.0026829
0.00263046
0.00270513
0.00267654
0.00269792
0.00266019
0.00263925
0.00252292
0.0026869
0.00270882
0.00269401
0.00269305
0.00267213
0.00269354
0.00269043
0.00268131
0.00263606
0.00254911
0.00276556
0.00265902
0.00276224
0.002726
0.00251817
0.00270391
0.00270348
0.00270922
0.00270712
0.00255383
0.00270721
0.00270472
0.00270043
0.00267795
0.00268706
0.00267914
0.002683
0.00268687
0.00268306
0.00262123
0.00268721
0.00259653
0.00262291
0.00262673
0.00270922
0.00265315
0.00265905
0.00264554
0.00267638
0.00261833
0.00263935
0.0025805
0.00261947
0.00264613
0.00270491
0.00267133
0.00270835
0.00270176
0.00274456
0.00268383
0.00266445
0.00261875
0.00264541
0.00268608
0.00265003
0.00264807
0.00265479
0.00267697
0.00268638
0.00268958
0.00269832
0.00268278
0.00266819
0.00274287
0.00270643
0.00270373
0.0027047
0.00269673
0.00271642
0.00258809
0.00266326
0.00239194
0.00265818
0.00265789
0.00252486
0.00264166
0.00267394
0.002411
0.00266511
0.00267582
0.00261276
0.00250663
0.00266966
0.00265269
0.00268928
0.00269548
0.00269501
0.00267682
0.0026841
0.0026926
0.00269341
0.00269189
0.0026785
0.00269732
0.00266463
0.0026687
0.00290591
0.00277138
0.00270471
0.00273978
0.00278452
0.00264796
0.00267969
0.00268733
0.00269368
0.0025825
0.00268474
0.00263439
0.00269655
0.00259163
0.00273603
0.00281835
0.00270044
0.00269967
0.00267201
0.00266449
0.00282074
0.00266533
0.00270876
0.00272425
0.00273235
0.00269664
0.00274461
0.0027373
0.00272417
0.00271739
0.00277267
0.00271222
0.00275091
0.00289556
0.00290352
0.00243559
0.00264985
0.00277444
0.0026798
0.00267333
0.00242121
0.00253097
0.00260165
0.00248547
0.00244414
0.0027012
0.00283462
0.0028144
0.00270509
0.00250055
0.00269676
0.00270574
0.00253184
0.00271755
0.00266129
0.00270741
0.00262399
0.00263988
0.00261537
0.00265942
0.00266219
0.00265493
0.00268395
0.00268753
0.00269065
0.00263707
0.00268726
0.00265574
0.00268307
0.0026838
0.00267982
0.00263848
0.00263188
0.00258298
0.00271414
0.00270292
0.00267868
0.00270668
0.002704
0.002707
0.00269832
0.00268257
0.00269067
0.00247263
0.00264085
0.00272761
0.0026856
0.00267023
0.00280617
0.00268522
0.00269981
0.00268579
0.00268029
0.00257471
0.00266523
0.00286839
0.00281278
0.00264707
0.00262719
0.00263871
0.0027044
0.00266535
0.00262387
0.00272252
0.00264619
0.00263475
0.00266493
0.0025649
0.00256649
0.00262134
0.00269425
0.00265394
0.00260892
0.00265
0.00263407
0.00270982
0.00269555
0.0026775
0.00268731
0.00263605
0.00266206
0.00269336
0.00268016
0.00270013
0.00269155
0.00270085
0.00274173
0.00259177
0.00265718
0.00273838
0.00264935
0.00258909
0.00265171
0.00269668
0.0026652
0.00270918
0.00277111
0.00276007
0.00263735
0.00271068
0.00276767
0.00273722
0.00231774
0.00266389
0.00266528
0.00264672
0.00283976
0.00249884
0.00278201
0.00271464
0.00269821
0.00254922
0.00269191
0.0026923
0.00257078
0.00269582
0.0026212
0.00267197
0.00263046
0.00278724
0.00287494
0.00267927
0.00264828
0.00278486
0.00270377
0.00272129
0.00274829
0.00271363
0.00274637
0.00270311
0.00268852
0.0027226
0.00266733
0.00269124
0.00269898
0.00271537
0.00269716
0.00271541
0.00264781
0.0026123
0.00264146
0.00265324
0.00263606
0.00265934
0.0026602
0.00271998
0.00269753
0.00267282
0.00261568
0.00268025
0.00269886
0.00268637
0.00265658
0.00264592
0.00267611
0.00266633
0.00271371
0.00268116
0.00265883
0.00268489
0.00268358
0.00268926
0.00270992
0.00268596
0.00269533
0.00267543
0.00269963
0.00269796
0.00262458
0.00262633
0.00263923
0.00281505
0.00270585
0.00273796
0.00269373
0.0027019
0.00270604
0.00270425
0.00270638
0.00269446
0.00271492
0.00270633
0.00258902
0.00268322
0.00260469
0.00274101
0.00271981
0.00270921
0.00266696
0.00277725
0.00265686
0.00269103
0.00268406
0.00283496
0.00264664
0.00266599
0.00262358
0.00262931
0.00266716
0.00261468
0.00273265
0.00268822
0.00265651
0.0027632
0.00261259
0.00265213
0.00263881
0.00264677
0.00275626
0.0021961
0.00276202
0.00278125
0.00276463
0.00274565
0.00277843
0.00276271
0.00277096
0.00227831
0.00269975
0.00270316
0.00266061
0.00268008
0.00268844
0.00268236
0.0026623
0.00267504
0.00268628
0.00277476
0.00276542
0.0026926
0.00266521
0.00267351
0.00264379
0.00267583
0.00258672
0.00267633
0.00256332
0.00267628
0.00266219
0.0026612
0.00264322
0.00265512
0.00267858
0.00268692
0.00268699
0.00268571
0.00269125
0.0026623
0.00269277
0.00267309
0.00266929
0.0026998
0.00260152
0.00270189
0.00264268
0.00241371
0.0026921
0.00263285
0.00272173
0.00264471
0.00266916
0.00265132
0.00262005
0.00271977
0.00259543
0.00266617
0.00263572
0.00270895
0.00273451
0.00282195
0.00281245
0.00266274
0.0027037
0.00269659
0.00268245
0.00269444
0.00265397
0.00248418
0.00271704
0.00269544
0.00270989
0.00270684
0.00265898
0.00262057
0.00263845
0.0026324
0.00266916
0.0026958
0.00269794
0.00265762
0.00266758
0.00269376
0.00268041
0.00268508
0.00268876
0.00268637
0.00262272
0.00267204
0.00268573
0.00267993
0.00268892
0.00269207
0.00269468
0.00268094
0.00277777
0.00266876
0.00263508
0.00264296
0.00268964
0.00266311
0.0026791
0.00266398
0.00267219
0.00268558
0.00265966
0.00267509
0.002658
0.00266241
0.00267367
0.00268577
0.00268409
0.00268544
0.00273779
0.00262805
0.00259091
0.0027445
0.0026976
0.00274718
0.00276548
0.0025369
0.00264227
0.00266289
0.00266564
0.00271449
0.00263902
0.00276974
0.00271645
0.00252835
0.00269666
0.00266616
0.00266965
0.00249643
0.00249333
0.00256364
0.00242435
0.00274105
0.00277767
0.00264621
0.00290849
0.00282081
0.00277426
0.00279528
0.00276045
0.00271127
0.00273657
0.0028273
0.00270485
0.00281036
SCALARS CoVolArea double 1
LOOKUP_TABLE default
8444.25
8433.81
8442.09
8432.85
8510.57
8411.07
8380.74
8492.29
8459.96
8404.65
8474.61
8420.13
10885
10895.8
10901.3
10892.9
10935.8
10967.5
10975.5
10989.7
11020.5
10920.3
10883.7
10864
10973.9
10936.7
10919.9
10936.5
10962.1
10908.4
10997.2
10978.4
10917.9
10960
11009.1
11016
10949.9
10894.7
10889.1
10899.3
10906.3
10900.6
10361.4
11405.9
10363
10339.3
11387.1
10323.4
10319
11386.5
10337.5
11434.7
10375.3
10315
11401.2
10370.8
11430.1
10350.9
11467.1
10394.5
10387.9
11462.3
10427.1
11490.8
10423.9
11521.1
10430.5
10426.3
11505.2
10450.5
11533.4
10433.9
11495.8
10402.3
11521.7
11431.5
10337.1
11387.9
10343.3
10330.1
11375.4
10305.6
11371.9
10325.7
11434.3
10358.9
10359.3
11427.5
10414.4
11465
10439.5
11430.3
10356.5
10365
11433
10379.1
11443.7
10363
11454.7
10370.4
10427
11492.8
10330.1
11423.8
10318.3
11494.6
10421.4
10412.6
11503.6
10415.3
11512.9
10425.7
10364.5
11478.2
10407.3
10343.6
11453.4
10337.5
10459.4
11509
10434.1
11521.3
10368.3
10463.1
11548.8
10375.3
11524.9
10414.5
11392
10337.4
10346.3
11396.5
10313.4
11367
10317
11413.7
10348.4
10322.7
11405.1
10353.1
11417
10358.9
11422.6
10380.2
11416.9
11405.6
10315.1
11458.5
11416.6
11426
11491.9
11519
11471.1
11411.9
11423
11427.5
11446.6
11415.4
11486.9
11403.9
11492.4
11471.1
10185.9
10453.3
10181
11265.6
10483.8
10271.6
10279.4
10490.2
11279.5
10156
10426.5
10149.1
11263.9
10467
10261.9
10239.9
10458.5
11252.4
10136.8
10418.4
10151.3
11264.8
10457.1
10250.5
10260.4
10460.4
11260.7
12593
12591
12598.5
10465.6
10185.7
11294.1
10503.4
10300.8
10509.7
11308.6
10134.7
10411.6
11271.7
10457.6
10244.8
10459.5
11275.5
10177.5
10456.8
10168.2
11306.9
10504.4
10298.6
10269
10494.8
11287.6
12627.6
12625.5
12637.9
10473.3
10198
11325.1
10520.2
10327.1
10526.7
11344.4
10189.1
10468.5
11338
10521
10319.1
10516.3
11323.3
10244.6
10523.2
10243.3
11357.8
10561.4
10344.9
10339.3
10559.8
11353.7
12679.3
12689.7
12692.4
10514.3
10213.9
11369.8
10562.3
10372.2
10579.7
11399.1
10244.3
10524.7
11373.6
10563.8
10346.6
10563.6
11367.8
10250
10544.1
10238.4
11403.7
10594.5
10379.5
10358.5
10588.3
11388.3
12732.3
12738.3
12748.6
10494.8
11393.6
10567.6
10527.6
11311.4
10223
10532.3
11349.7
10569.7
10308.6
10589.5
11400.9
10423.1
10154.7
11279.9
10461.8
10264.5
10469.9
11303.8
12730.8
12700.4
12684.5
10437.3
10170.1
11266.2
10475.5
10251.2
10465
11244.4
10147.9
10412.5
11248.6
10451.1
10249.9
10449.7
11254.5
10130.5
10410.5
10140.1
11234.8
10442.9
10222.5
10249.6
10452.6
11250.3
12583.1
12576.3
12574.8
10447.2
10161
11288.4
10490.1
10292.2
10501.6
11312.6
10163.7
10443.2
11319.4
10495.5
10306.1
10485
11286.1
10254.6
10527.1
10262.5
11322.5
10542.5
10312.7
10353.7
10561.6
11348.6
12638.6
12655
12652.5
10443.2
10163.5
11291.1
10486.2
10290.6
10493.9
11306
10195.9
10472.6
11300.8
10500.9
10283.8
10507.1
11298.5
10190.9
10467.1
10180.7
11313.4
10512.1
10303.3
10285.2
10506.9
11305.2
12642.1
12647.1
12649.8
10497.1
10203.9
11356.8
10547.8
10281.3
10513.5
11296.6
10243
10523.6
11354.7
10564.5
10345.3
10562.9
11362.6
10126.5
10412.6
10114.3
11284.3
10471.3
10263
10285.2
10476.1
11320.9
12685.2
12674.2
12646.1
10520.3
10242.1
11357.4
10556.8
10339.5
10556.9
11363.3
10199.5
10500.7
11378.1
10561.8
10351.6
10549.5
11357.2
10220
10520.3
10227.6
11371.4
10567.4
10341.9
10356
10571.5
11381.3
12716.1
12727.6
12721.2
10177.8
10477.8
10191.4
11317.7
10519.1
10287.2
10353.8
10545.9
11372.1
10147
10436
10144.6
11334.1
10499.6
10289.8
10271.7
10492.1
11308
10271.8
10543.5
10259.3
11386.1
10586.1
10379.6
10345.8
10574
11362.2
12680.1
12697.4
12711.3
10488.4
10176
11393
10566
10304.2
10547.2
11367.2
10273.8
10562.5
11411.2
10608.1
10384.9
10606.4
11407.6
10184.8
10495.7
10200.9
11370.1
10552.7
10309.1
10360.3
10571
11398
12757.7
12759.6
12748.3
10439.4
10162.2
11283.1
10482.7
10257
10469.9
11263.6
10173.3
10447.9
11269.2
10476.8
10263.6
10489
11285.9
10118.6
10393.7
10120.6
11252.9
10441.8
10248.5
10253.3
10443.6
11256.6
12586.8
12583.1
12580.8
10438.9
10166.8
11275.4
10477.3
10271
10482.2
11285.3
10122.8
10416.2
11276.2
10466.9
10255.3
10464.6
11271
10181.6
10450.5
10189.5
11286.2
10486.9
10271.9
10271.3
10486.3
11282.4
12618.1
12620.5
12623.9
10451.1
11286.8
10489.3
10494.5
11293.1
10203.1
10457.3
11280.6
10491.5
10287.2
10488.4
11285.4
10422.6
10133.7
11284.5
10473.2
10244.5
10464.1
11268.8
12624.6
12617.1
12624.5
10524.4
11338.6
10555.3
10539.6
11319.7
10429.4
11274.7
10473.4
10482.4
11306.2
10443.3
11308.9
10497.7
10482.1
11277.1
12644.7
12627.4
12645
10489.9
11381.8
10556.1
10533.6
11335.1
10549
11373.3
10581.2
10593.1
11394.9
10453.9
11327
10510.8
10516.8
11350.2
12724.1
12712
12697.5
10421.5
11277.3
10469.9
10473.2
11283.8
10450.7
11296.9
10493.5
10485.8
11282.4
10462.3
11292
10496.7
10497.9
11297.7
12626.7
12634.5
12629.9
10483.2
11286.8
10503.7
10535.7
11346.4
10408.7
11316.8
10472.7
10463.7
11274.4
10521.1
11354.6
10558
10562.2
11351.6
12635.5
12665.8
12675.6
10401.9
11279.6
10447.4
10440.5
11256.2
10507.5
11374.3
10563.6
10543
11322.1
10477.7
11288.5
10508.3
10547
11368.7
12669
12701.1
12655.2
SCALARS SignedDistance double 1
LOOKUP_TABLE default
473.853
493.824
473.436
486.964
378.056
520.807
595.069
393.806
463.559
525.979
445.41
502.62
542.57
516.267
511.286
520.767
476.263
440.11
429.713
423.743
378.047
503.122
529.732
563.875
449.11
467.743
484.219
470.648
486.617
500.773
404.615
433.482
491.899
465.921
393.722
383.848
516.604
526.15
528.002
509.049
499.012
518.771
500.422
518.673
480.499
507.054
533.321
527.794
528.044
534.346
514.663
483.664
463.323
532.982
525.747
469.377
486.23
496.332
451.812
458.923
465.917
456.285
402.428
421.886
407.71
398.453
430.896
403.887
415.426
380.513
375.35
416.926
463.923
462.668
424.904
529.3
514.318
539.152
525.871
525.315
546.063
547.792
548.879
523.598
483.431
484.259
487.331
490.494
440.78
462.616
400.652
489.207
487.599
476.081
487.376
460.951
468.683
479.276
479.574
478.145
410.282
445.199
535.482
518.888
577.87
425.629
411.536
449.373
412.53
431.711
395.659
409.701
478.721
449.189
446.26
504.812
476.53
510.529
367.852
412.463
409.422
423.238
497.758
360.489
358.687
494.847
420.424
434.145
551.667
511.878
505.208
555.014
558.503
598.431
562.132
501.515
495.141
535.347
514.877
489.673
497.81
489.884
491.392
482.925
503.134
516.726
541.062
469.379
501.472
495.622
431.009
397.957
454.748
510.168
492.828
486.999
489.077
521.831
451.168
552.977
455.758
488.092
483.857
486.979
472.714
530.312
507.187
521.706
494.327
497.494
512.027
504.747
516.779
515.011
524.987
520.002
511.166
539.724
530.121
541.337
530.013
528.019
514.614
525.869
529.389
523.216
517.497
530.6
531.087
539.598
537.339
531.738
467.168
466.172
494.806
477.961
464.297
469.406
481.681
532.294
532.873
520.44
529.152
530.315
527.99
517.431
479.729
479.999
491.078
480.344
475.312
465.937
507.122
487.806
501.33
509.09
507.88
497.922
462.111
472.168
462.342
456.785
446.895
454.85
440.29
482.979
469.888
448.476
462.36
456.345
460.818
461.482
395.506
401.132
397.596
424.011
411.211
414.008
422.341
413.556
429.443
455.393
440.445
437.478
440.385
469.594
427.534
425.94
397.912
403.584
381.546
396.481
398.411
415.299
407.452
416.495
406.77
419.917
411.902
392.305
427.742
369.182
371.634
372.48
413.881
385.739
394.62
404.901
393.073
379.855
479.531
413.928
443.107
495.659
516.581
449.574
418.425
478.104
440.308
487.229
390.927
391.607
522.084
508.587
539.542
535.138
515.674
529.193
521.999
437.831
476.102
493.29
508.479
507.267
527.452
516.236
547.746
530.894
554.052
520.549
535.522
543.484
541.302
530.422
538.483
537.223
537.014
535.482
523.595
558.022
547.448
558.281
526.029
536.561
539.707
546.984
551.041
556.523
495.604
501.499
502.267
497.177
471.817
479.327
469.486
492.694
495.461
482.557
487.68
473.541
497.888
501.922
407.288
415.046
387.192
465.719
450.236
460.993
420.497
430.998
456.592
491.453
481.182
477.949
497.352
494.674
501.801
497.566
479.228
489.348
480.767
466.79
469.443
485.725
478.804
483.559
477.57
491.288
463.487
466.168
475.833
468.916
463.777
463.8
481.862
471.82
478.271
486.87
478.963
474.365
454.603
464.176
450.947
448.741
489.944
478.455
492.039
398.064
404.613
463.869
425.054
443.595
415.763
432.906
568.951
564.566
591.509
509.747
530.486
514.737
533.355
551.397
517.208
475.278
493.835
495.924
405.335
400.256
431.819
416.802
427.705
418.386
424.377
483.402
452.593
402.601
420.694
420.933
435.486
433.794
444.709
414.595
433.18
409.593
406.41
427.802
401.195
397.214
393.505
414.672
397.709
405.983
480.15
464.836
470.767
474.072
467.006
483.004
414.818
442.477
419.415
514.787
509.113
519.383
469.521
493.121
493.637
501.643
496.996
485.597
367.199
384.82
392.274
399.044
388.001
377.591
434.715
406.645
433.983
460.88
445.785
428.634
468.263
490.832
399.397
430.412
506.371
464.73
466.001
362.925
353.864
366.474
353.701
368.446
357.367
372.454
483.344
461.023
461.729
466.801
460.751
506.329
404.753
423.307
392.964
382.05
378.993
417.003
509.902
501.035
548.917
525.281
519.263
526.356
538.946
489.921
503.763
540.211
523.48
515.508
526.291
552.17
577.132
597.836
583.547
559.302
578.387
540.461
542.035
583.536
562.639
588.654
581.85
576.925
500.956
491.637
511.434
505.91
497.567
498.814
497.512
563.226
545.723
510.854
523.721
519.33
530.464
520.617
480.769
487.846
478.092
497.176
494.81
497.171
501.173
496.416
501.769
506.785
503.452
499.185
485.29
499.019
491.345
485.305
491.812
469.364
484.372
506.917
493.129
503.813
493.281
502.559
523.066
535.381
504.349
512.717
538.317
525.69
528.637
504.175
516.594
500.466
418.286
469.523
440.076
454.353
468.648
511.859
514.683
511.825
502.157
494.7
502.072
476.609
486.198
508.854
515.903
490.696
503.558
489.073
451.773
405.625
427.799
449.558
453.741
376.507
417.72
394.772
377.117
386.399
487.899
463.438
473.858
470.344
449.415
411.643
426.697
440.028
548.125
517.245
528.958
520.765
504.805
489.583
485.759
487.52
498.481
506.005
475.248
492.326
484.759
482.286
484.944
500.047
489.364
495.464
468.39
503.277
490.144
459.786
458.546
559.375
519.824
548.48
531.698
516.443
408.229
443.509
422.427
428.449
467.04
505.147
498.902
484.353
546.771
538.885
553.638
557.472
561.286
442.007
421.629
422.257
464.924
501.469
497.007
538.304
515.984
465.093
440.095
504.531
466.12
518.659
