# vtk DataFile Version 4.2
vtk output
ASCII
DATASET POLYDATA
POINTS 642 double
-201.117 301.741 91.0393
191.727 290.301 81.3352
-213.133 -360.576 118.527
201.026 -354.499 122.186
-3.87984 -302.22 478.724
-5.17196 122.135 416.157
0.957107 -214.488 -160.69
-2.21779 206.142 -284.401
335.924 17.909 -116.008
285.959 -48.9332 296.144
-351.822 19.8541 -119.662
-305.756 -51.2055 299.203
-261.247 154.64 182.677
-175.142 52.9361 396.587
-117.48 273.856 247.406
105.707 271.196 245.507
-0.219454 350.388 78.6558
125.017 292.93 -130.532
-127.057 299.434 -133.64
-221.803 114.603 -229.178
-378.634 196.192 -63.6478
-366.489 -34.3334 63.2615
169.337 49.2703 388.755
252.598 136.851 181.877
-177.823 -212.917 428.218
-2.38798 -41.587 488.93
-307.1 -225.994 -16.1558
-304.374 -244.098 223.705
-5.10852 43.4194 -292.662
-197.172 -141.238 -195.642
358.189 188.827 -60.9927
216.359 114.359 -230.675
288.503 -239.367 218.735
164.363 -209.906 421.051
116.23 -402.273 338.032
-122.106 -405.986 342.492
-2.49954 -400.099 188.557
-157.202 -307.641 -70.285
147.092 -308.191 -70.6647
191.867 -141.535 -187.542
295.678 -220.282 -18.67
354.791 -31.314 57.4504
-246.24 246.777 131.285
-198.342 243.28 219.255
-161.786 309.98 178.31
-251.976 6.95552 357.854
-239.452 92.4417 310.984
-297.469 37.3724 263.378
-61.076 211.282 336.028
-137.384 173.298 333.094
-77.8942 94.1004 427.125
-82.9121 334.179 175.958
-104.559 348.474 90.9207
51.9609 210.357 333.724
-0.795069 272.087 262.869
95.6516 346.917 86.9678
72.0942 333.696 176.736
148.13 303.536 176.119
-65.9541 347.649 -22.3408
-194.359 294.969 -34.0634
186.899 289.25 -29.4455
60.4523 346.603 -18.8246
-67.6422 268.895 -223.268
-3.18942 320.758 -146.715
60.3945 266.606 -221.66
-289.988 260.446 -95.9005
-316.493 243.855 -38.237
-106.538 165.652 -285.173
-191.841 223.778 -197.745
-394.071 117.363 -101.561
-332.07 165.125 -168.261
-316.081 86.4393 -186.693
-354.356 177.891 11.4216
-374.84 15.9617 -41.215
-396.08 119.281 -38.8809
-333.194 76.2532 93.4388
-340.484 -63.2473 200.98
179.586 235.187 217.343
230.646 238.565 113.846
68.0472 92.7156 420.479
129.065 168.481 328.805
280.735 38.2994 260.494
229.222 88.2428 305.471
239.698 3.31223 352.515
-80.8916 17.7553 468.917
-5.34874 48.139 470.529
-256.735 -116.165 364.481
-194.694 -45.995 418.706
-1.89217 -194.263 482.984
-93.806 -137.622 474.213
-107.636 -256.264 475.058
-351.906 -148.932 157.995
-318.415 -147.838 265.602
-337.48 -119.744 -71.9478
-355.884 -129.105 30.2708
-271.276 -317.122 172.19
-329.281 -246.65 105.63
-273.162 -301.185 53.4251
-220.949 4.7469 -219.29
-283.179 -72.3195 -162.001
-2.91487 112.149 -320.988
-92.6562 97.9872 -295.913
-152.162 -174.452 -187.066
-123.95 -51.1641 -242.416
5.26558 -44.7394 -211.932
183.688 215.101 -191.678
100.629 162.93 -282.067
298.412 239.277 -32.5238
274.329 257.153 -94.1629
304.352 79.8244 -181.734
316.178 161.699 -161.305
373.74 108.493 -96.5498
257.267 -309.594 172.329
207.661 -330.648 292.57
151.829 -389.714 250.735
245.106 -107.07 358.124
240.994 -226.121 337.559
302.135 -145.186 258.154
57.2079 -368.019 428.467
154.316 -308.373 408.958
98.5679 -255.08 471.025
54.097 -436.765 270.381
108.269 -393.471 146.971
-64.3425 -371.145 432.392
-3.32935 -438.856 358.773
-115.9 -394.302 150.929
-60.2487 -439.078 271.434
-161.103 -396.007 252.032
123.526 -345.989 34.4598
169.72 -342.583 11.308
-177.464 -348.211 14.5477
-128.067 -343.962 35.3467
125.625 -254.734 -124.597
1.06646 -252.366 -72.4438
-129.145 -253.159 -124.041
224.352 -282.65 -54.1021
261.268 -294.02 49.3896
135.158 -175.815 -188.237
167.528 -242.022 -145.455
327.407 -117.13 -68.9395
259.694 -186.957 -116.831
276.893 -71.7628 -156.28
311.927 -241.31 104.28
359.997 8.88824 -35.0506
346.043 -122.463 18.5364
329.451 -148.003 161.192
320.52 -63.8293 194.844
83.9797 -137.127 471.989
187.664 -46.7739 413.357
71.0022 16.227 461.932
-222.006 -335.947 297.579
-165.676 -311.694 413.733
-256.643 -228.134 346.16
-174.338 -243.57 -149.024
-231.022 -286.304 -55.5019
-267.962 -188.887 -120.424
217.773 9.0006 -208.595
111.961 -58.1791 -241.406
85.3434 102.957 -293.695
316.701 65.3779 90.5461
372.057 109.539 -38.785
332.224 174.857 11.0072
-227.085 276.86 111.017
-203.61 285.027 162.742
-179.826 312.87 140.95
-227.199 208.991 203.578
-220.378 251.684 183.053
-255.2 215.667 146.691
-141.537 299.127 211.195
-183.488 279.366 200.461
-160.2 264.075 234.735
-281.202 -21.3431 330.605
-279.145 22.8984 312.699
-304.552 -5.99134 282.966
-215.043 72.4641 355.097
-247.953 50.435 337.803
-219.038 30.9617 378.182
-285.667 82.0257 234.746
-270.621 66.649 290.181
-253.084 117.991 257.316
-31.4084 165.951 372.185
-67.253 149.9 379.26
-42.7104 109.442 426.397
-124.054 227.963 293.762
-98.6099 197.799 336.177
-87.8011 241.082 297.947
-122.379 74.4934 415.434
-110.342 129.729 375.882
-157.699 104.897 369.728
-212.595 168.463 260.033
-188.944 132.453 322.286
-167.08 209.627 276.412
-140.024 334.262 141.284
-152.983 331.681 95.8719
-104.804 312.103 209.939
-121.347 327.312 179.831
-67.4744 357.644 82.6395
-96.9181 346.038 136.735
-50.3236 344.994 130.005
22.8403 166.569 371.615
-3.49094 210.944 337.238
60.7977 273.993 256.152
29.5239 242.201 304.404
77.7611 239.348 294.472
-36.4056 241.527 305.45
-70.2332 273.508 259.714
138.307 326.273 89.9793
127.28 329.165 138.44
166.02 304.877 138.379
44.8602 346.613 130.625
85.1735 344.551 134.48
61.693 356.822 82.9709
128.512 294.3 208.89
109.225 323.094 178.896
91.8585 310.134 209.192
-44.4362 307.884 212.857
40.475 309.627 213.851
0.522208 330.118 175.04
-134.805 338.014 37.6611
-196.53 297.312 24.159
-41.0983 357.76 31.724
-85.8215 355.746 36.4725
-161.268 300.589 -82.0281
-113.828 335.134 -23.1406
-93.8396 331.502 -81.4607
190.906 290.37 18.5336
127.135 335.009 35.3214
87.4294 326.484 -78.6148
110.403 331.937 -18.6075
161.056 291.299 -83.0858
80.6031 353.828 38.3901
36.7853 359.545 32.604
-34.9162 241.223 -258.035
-2.48353 271.63 -228.019
29.4581 240.454 -257.497
-63.0802 314.974 -143.25
-34.954 297.959 -187.206
-97.5749 288.814 -182.188
89.7873 284.866 -179.486
28.7721 297 -186.866
55.8047 312.18 -142.756
-3.2933 349.259 -23.8875
27.632 337.776 -88.0978
-35.2776 339.351 -88.4847
-270.01 271.379 -46.5185
-253.351 254.46 5.90513
-218.458 262.681 -105.033
-259.355 279.702 -68.9784
-348.503 225.503 -48.6792
-307.547 259.574 -61.7505
-339.158 237.242 -80.4344
-54.4186 188.788 -288.74
-87.8992 223.533 -259.808
-211.164 168.306 -219.761
-140.665 198.74 -251.614
-156.208 139.87 -274.032
-121.209 250.46 -220.395
-162.418 264.219 -172.432
-376.328 82.1604 -114.828
-359.318 103.977 -150.428
-340.515 56.9732 -156.52
-362.718 184.794 -115.371
-371.739 139.345 -140.666
-399.37 151.901 -83.7473
-286.651 105.04 -207.878
-330.492 124.687 -183.825
-296.904 142.429 -202.769
-254.829 241.708 -153.362
-279.805 198.784 -182.101
-313.266 220.912 -137.38
-277.49 227.696 37.9332
-369.146 190.348 -28.287
-342.134 211.29 -11.9028
-295.197 197.683 56.3511
-305.225 164.624 72.5648
-368.976 18.7848 -79.159
-394.892 87.3232 -72.4156
-377.632 72.4523 -8.29951
-392.087 89.4891 -43.6853
-371.934 -1.62252 8.92598
-406.197 120.607 -62.087
-400.824 146.731 -48.9985
-321.289 -8.00985 238.096
-325.595 -54.907 253.666
-307.32 100.986 139.102
-313.373 42.4578 205.35
-352.647 -57.0753 136.844
-334.343 -3.53085 170.763
-352.343 23.4114 69.084
-383.657 146.586 -10.1902
-374.179 112.822 8.26207
-356.067 136.907 32.246
187.355 277.273 158.549
217.121 265.193 97.5852
145.628 258.263 231.985
167.704 273.248 196.546
238.685 199.176 132.094
200.469 246.922 177.643
208.056 193.035 204.06
31.5696 109.069 422.92
58.1577 150.29 375.449
150.819 102.5 362.895
103.289 129.062 369.723
115.991 72.5683 405.988
89.8587 194.906 332.405
113.588 223.579 290.718
285.253 -3.79278 280.431
264.456 21.3904 307.858
265.253 -20.5677 327.444
243.493 107.978 257.337
257.849 64.7385 284.954
270.985 77.9301 234.677
208.807 26.4171 372.285
236.286 47.4728 331.391
205.11 69.1483 348.47
156.077 201.409 274.949
180.176 127.287 318.289
200.501 156.5 262.99
-43.2572 73.2511 454.682
-5.64576 84.7464 448.682
-123.922 36.7645 436.907
-81.0805 55.4782 452.42
-5.24642 9.30259 484.442
-44.9009 32.6604 475.075
-44.5767 -6.87086 485.448
-288.191 -75.8431 331.862
-260.122 -46.5995 362.885
-188.556 -126.02 418.496
-229.346 -78.7836 394.139
-219.977 -165.893 391.115
-226.503 -18.5849 390.855
-188.456 5.76787 410.564
-2.21402 -255.306 481.992
-60.6925 -235.754 482.719
-55.3981 -282.045 479.3
-45.5047 -81.7677 483.19
-55.3335 -164.323 481.961
-0.893921 -108.312 489.279
-142.377 -239.249 457.636
-103.257 -215.812 473.639
-131.853 -190.418 453.205
-135.892 -14.5984 444.344
-138.164 -88.2577 449.562
-86.0933 -43.7349 474.208
-336.566 -101.304 232.173
-316.341 -96.5837 282.49
-357.551 -100.915 122.488
-352.985 -104.801 181.856
-312.548 -197.902 247.93
-340.383 -145.721 210.989
-333.85 -195.82 185.757
-345.159 -58.4461 -94.9979
-361.71 -63.1459 -52.6708
-334.802 -178.315 7.81765
-353.291 -123.113 -28.5568
-321.879 -170.98 -47.7374
-368.867 -73.1389 -6.88344
-368.397 -86.021 49.1288
-245.187 -342.202 145.548
-278.855 -313.038 110.695
-246.643 -333.606 86.6108
-323.282 -248.234 156.135
-305.926 -282.508 134.423
-290.939 -283.609 198.036
-293.259 -265.476 17.8076
-305.246 -276.916 80.7122
-321.742 -240.336 51.1859
-357.208 -150.1 95.4209
-346.887 -197.277 76.528
-349.01 -202.931 127.859
-301.76 17.0759 -175.131
-318.558 -26.3867 -142.998
-228.032 79.1801 -226.19
-276.6 52.7244 -203.621
-239.821 -110.917 -180.115
-257.427 -33.3666 -191.094
-207.238 -76.2981 -211.173
-2.49753 152.064 -310.902
-52.9421 135.574 -313.074
-41.125 69.9069 -299.873
-46.7364 103.083 -311.868
-3.74424 86.8355 -309.856
-105.809 121.038 -300.677
-150.784 111.978 -276.773
-114.955 -187.592 -172.099
-113.738 -131.038 -199.01
2.38815 -143.476 -170.088
-160.063 -106.129 -222.279
-144.785 -118.286 -212.747
-165.061 -163.233 -198.354
-2.59088 18.5066 -271.747
-99.1853 -36.4606 -242.07
-50.5051 11.8447 -271.491
-149.507 61.4826 -251.63
-91.1207 21.648 -269.098
-158.145 -39.1381 -243.985
[...]
POINT_DATA 642
SCALARS Mean_Curvature double 1
LOOKUP_TABLE default
0.00718647
0.00492461
0.00725882
0.00626548
0.0117424
0.00470114
0.0279116
0.00807616
0.00232751
0.00707431
0.00428706
0.00694888
-0.00252729
0.00404021
0.00372513
0.00503175
-0.00345314
0.00400367
0.00382512
0.00137424
0.0189484
0.0074842
0.00456881
6.08061e-05
0.00297637
0.00618337
0.00519571
0.00374306
0.0133328
0.00535407
0.0202701
0.0102615
0.00382334
0.0024642
0.00691469
0.00610558
-0.00298288
0.0152971
0.0240403
0.00394458
0.00577918
0.00997965
0.00804464
0.00648381
0.00993871
0.00694702
0.00539334
0.00527042
0.00776837
0.00471763
0.00638239
0.00953549
0.00368106
0.00763271
0.000299749
0.00543521
0.011573
0.0099076
0.00397073
-0.00155986
-0.00154165
0.0039749
0.00717813
0.00703899
0.00717479
0.0102043
0.00453329
0.00539495
0.00220017
0.0144545
0.00904862
0.00540878
0.00958195
0.00267152
0.00643248
-0.0013371
0.00163328
0.00537351
0.00601135
0.00444512
0.00450472
0.0067019
0.00577963
0.00678162
0.00924858
0.00886237
0.00340806
0.0060828
0.00070188
0.0064772
0.0142467
0.00438275
0.00479121
0.00652564
0.00107284
0.00594707
0.00841005
0.00470471
0.00132781
0.00474728
0.0244417
0.00212882
-0.00383727
0.0206522
-0.00744629
-0.00036958
0.00535829
0.00494336
0.0100565
0.00823925
0.00968356
0.014826
0.00534784
0.00443817
0.00244855
0.00521641
0.00739297
0.00557368
0.00681231
0.00830503
0.0148015
0.00808123
0.0132484
0.00851733
0.0107031
0.010895
0.00822426
0.00395723
-0.00376304
0.0109694
0.0159348
-0.00311931
-0.00304548
-0.0205847
-0.00231373
0.00663176
0.00497247
0.0103859
0.0147327
0.00690289
0.00677782
0.00641644
0.00872148
0.00382084
0.00766615
0.00420151
0.00219073
0.00641717
0.00794583
0.00748937
0.00538568
0.00734949
0.00695002
0.022364
0.00543026
0.00662595
-0.000899339
0.0343798
0.00120744
-0.00288095
0.0021757
0.00893668
0.00640141
0.00900533
0.00964029
0.00246067
0.0098497
0.00380719
0.00978753
0.00966906
0.00581131
0.00577829
0.00628235
0.00601177
0.00586754
0.00681248
0.00673454
0.0030265
0.00586902
0.00336597
0.0012144
0.00243394
0.00789246
0.00541629
0.00712566
0.00701014
0.00314378
-0.000452071
0.00242389
0.000198333
0.00148458
0.00296532
0.010663
0.00553007
0.00912092
0.0116716
0.0109
0.0112413
0.00108242
0.00305939
0.00364554
0.00249748
0.00604317
0.00603801
0.00431335
0.0026986
0.00285471
0.00993925
0.00861728
0.00402435
0.0104821
0.0111013
0.00946112
0.0105452
0.00981862
0.000798274
0.00382406
0.00305113
0.0057898
0.00147256
0.00530172
0.00950195
0.00355795
0.0027549
0.00675003
0.00128412
0.00730212
0.0046832
0.00342007
-0.000771557
0.00899839
0.00846094
0.00737781
0.00673354
0.00815238
0.00402343
0.00549196
0.00708288
0.00609886
0.00623156
0.00394193
0.00106507
0.00563949
0.00583872
0.00849185
-0.0063747
-0.00923894
0.0199699
0.0146842
0.0223437
0.0157592
0.0053193
0.00744448
-4.32319e-06
0.00532529
0.0118721
0.00647966
0.0051918
0.00494028
0.007671
0.00737787
0.00673281
0.016887
0.01887
0.0084325
0.0158435
0.0120408
0.0100106
0.00818805
0.00821087
0.000203166
0.00813503
0.0075122
0.000866831
-0.00386203
0.00371489
0.0124609
-3.5261e-05
0.00970087
0.00239718
0.0311821
0.0201538
0.00467093
0.00528492
0.00135778
0.00326378
0.00176622
0.000822867
-0.00203262
0.0147539
0.00522112
0.00687046
0.00834838
0.00691714
0.00517677
0.0096888
-0.00262646
0.00857701
-0.00145584
0.00697619
0.00210316
0.00286206
4.8705e-05
0.00248042
0.00648404
0.00487988
0.00559437
0.00639285
0.00730583
0.00437151
0.00704667
0.00443189
0.00621202
0.00663
0.00570361
0.00313311
0.00228018
0.00157767
0.0101856
0.0079554
0.00506489
0.00835237
0.00989205
0.0107918
0.0105156
0.00741805
0.00563455
0.0011941
0.00576192
-0.000543189
0.00707625
0.00549125
0.00165763
0.00530394
0.00830163
0.00167006
0.00249443
0.0057791
0.0110852
0.00750904
-0.00219128
0.00243856
0.00162582
0.00586348
0.00554364
0.00609217
0.00170218
0.00998362
0.0030847
0.00576147
0.00252371
0.00550302
0.00587856
0.000993138
0.00864748
0.00284036
0.00662752
0.00697725
0.00604477
0.00830771
0.00616527
0.00632602
0.00788374
0.00421317
0.00497432
0.00692399
0.00537361
0.00456609
0.0070327
0.0108524
0.00303737
0.00294298
0.00277623
0.00530411
0.00288269
0.00202629
0.00383329
0.00706438
0.0134757
0.00391508
0.0132947
0.00519594
0.0218267
0.0126081
0.00114848
-0.000401671
-0.00668962
0.0162697
-0.000167458
0.0266723
0.000894282
-0.00709113
0.0126299
-0.00564408
0.00309387
0.00868266
0.00685085
0.00557579
0.00362142
0.00594299
0.0144964
0.00535446
-0.00338658
-0.00219067
0.00940989
0.0170353
0.0198566
0.0121874
0.0122841
0.0048175
0.00645148
0.0132442
0.00669459
0.0115284
0.012274
0.0105632
0.0201855
0.0100929
0.00744274
0.010101
0.00764841
0.00848043
0.00468413
0.00730875
0.00434377
0.00413682
0.00587847
0.00513532
0.0124651
0.00448378
0.00891195
0.00520066
0.00434931
0.00378524
0.00595627
0.00231182
-0.000222936
0.00343346
0.00380385
0.00428979
0.00911133
0.00689725
0.0090725
0.00737191
0.00731378
0.00586444
0.00958452
0.0119035
0.0084031
0.00470016
0.00471819
0.00542305
0.00550167
0.00584314
0.0141968
0.00459946
0.00360175
0.00774636
0.00392667
0.0105389
0.00938806
0.00733282
0.00915178
0.00645502
0.00976119
0.00601714
0.00811114
0.005833
0.00211186
2.60338e-05
0.0100327
0.00233846
0.0105755
0.00661998
0.0128965
0.0172514
0.0202178
0.00356429
0.0190587
0.00210219
-0.00232954
0.00367112
0.0233682
0.0187583
0.00198178
0.00624221
0.0189897
-0.000725754
0.00752999
0.024237
-0.00205835
-0.00176005
0.00111762
-0.0194426
0.00262297
-0.00327047
0.0208959
0.00289707
-0.00157155
0.0204374
-0.0024012
-0.00845006
0.00678342
0.00634686
0.00370247
0.0058087
0.0109354
0.00468636
0.00493311
0.00653744
0.00741474
0.00130433
0.003988
0.0080032
0.0192296
0.015922
0.0143257
0.0243733
0.00638937
0.00619656
0.00460646
0.00588352
0.00417385
0.00400312
0.00141603
0.00417399
0.00703679
0.00522276
0.00613156
0.00692985
0.00735784
0.00416428
0.00745995
0.00781036
0.00614989
0.00204548
0.00639568
0.00765755
0.00717692
0.00439045
0.00947961
-0.000450824
0.00649367
0.00258898
0.00302161
0.0088182
0.00167203
0.00709029
-0.000118587
0.00753223
-0.00218083
0.00971205
0.00827998
-0.00256888
0.00522088
0.00294648
0.00710699
0.007562
0.00591523
0.00769325
0.00594976
0.00285539
0.00975542
0.0103365
0.0108062
0.00678584
0.00253572
0.00289645
0.00424175
5.83656e-05
0.00471955
0.00782768
0.00547629
0.00540933
0.00444012
0.00663224
0.0107163
0.010389
0.00689198
0.00701785
0.00303292
0.00440825
0.00399072
0.00582455
0.00705095
0.00640584
0.00522734
0.00498352
0.000980692
0.0281016
0.00169797
0.0196171
0.013885
0.0023631
0.00688955
0.00525339
0.00504122
0.0161805
0.00569076
0.00523879
0.00426844
0.00435394
0.00592702
0.00644304
0.00643513
0.00479961
0.00279563
0.00362673
0.00247558
0.00506995
0.00500812
-0.000876464
0.0128702
-0.0152736
0.0126043
0.0103546
0.0135679
0.0101264
0.0264974
0.0138183
0.00305877
0.004984
0.000445706
-0.00533399
0.00422745
0.00224949
-0.000263929
0.00259633
0.00101775
0.0123319
0.0162575
0.0291606
0.0107967
-0.000339085
0.0037454
-0.00307925
0.00209147
0.00794567
0.00752024
0.00425038
0.0110855
0.00546801
SCALARS CoVolArea double 1
LOOKUP_TABLE default
3055.67
3091.1
2436.76
2415.83
2174.4
2130.68
4030.33
2493.62
2685.44
1918.84
2810.54
1879.09
6009.18
2943.94
2475.46
2403.3
3618.48
3981.08
4152.15
3295.41
2207.92
4121.24
2904.84
5785.15
3242.31
2647.29
3184.92
3498.01
2064.17
2785.18
1864.23
2658.75
3226.24
3389.51
3070.57
3267.26
4524.38
1155.78
1095.99
2877.04
3038.14
3226.53
3117.13
2770.62
1780.18
2201.6
3234.41
2533.57
2667.72
3633.56
2501.91
2611.02
2380.43
2613
3934.9
2216.15
2338.58
1737.74
3370.02
4352.71
4121.19
3475.88
2970.18
3335.98
2896.83
2883.35
2483.97
3014.25
4544.86
1764.87
2936.33
2339.35
2516.83
3323.48
1327.43
5432.62
3035.68
2882.9
3162.77
2682.17
3467.61
2232.55
2867.81
2013.25
2430.89
1713.54
3328.83
3611.67
4013.3
4037.99
2229.99
2942.34
3051.54
2865.67
3416.27
3005.17
2445.84
2701.52
5226.38
3473.03
1676.56
2944.88
1511.71
2283.88
10260.2
4863.03
2990.1
2001.3
2532.58
2093.37
2829.63
1785.36
2807.37
3307.12
2968.62
3172.59
3122.9
2704.81
3131.88
2979.91
2065.92
2317.88
2537.95
3088.65
2956.02
2515.42
2287.39
3082.49
4816.25
2425.73
2265.99
5479.37
2806.2
7435.88
3104.41
2515.71
2594.3
1274
1958.57
2582.75
2724.52
3244.92
2388.74
3075.07
2874.03
3218.54
3251.67
4007.36
3029.42
2719.98
3367.25
3218.79
3176.02
1777.28
2757.27
2872.67
5217.97
2391.89
3093.59
5568.47
1549.55
2272.35
3457.45
2134.73
2220.63
3697.97
2150.63
3921.51
1777.71
1798.28
2545.58
2219.75
2252.71
2290.35
2920.44
2163.1
2215.13
4167.75
2494.3
4035.6
3006.41
2922.38
2253.31
2876.96
2744.45
2441.68
2834.08
3337.23
3648.09
4370.36
4382.52
4044.92
2055.71
3128.67
2321.68
1694.24
2550.86
2035.21
3570.99
2966.92
2954.31
2955.16
2886.9
2404.14
2990.67
3286.35
3228.76
2111.96
2454.42
3351.04
1972.23
2329.54
1733.28
1710.93
2105.4
3875.66
3503.31
3805.75
3971.89
4405.92
3328.18
2666.7
4374.06
4054.73
3874.38
4042.19
3560.97
4201.1
4066.5
4374.01
2482.38
3252.84
2902.77
2980.82
2842.53
3453.91
3028.38
3191.96
3240.82
2977.64
3561.03
4044.03
4016.86
3922.54
2747.13
4203.77
4380.86
2696.34
1505.88
1457.16
2557.5
3085.58
3080.2
4848.05
3981.27
3199.42
3493.66
4382.88
2545.88
2110.69
2896.55
3240.25
2382.25
2046.92
2285.6
1952.31
3218.28
4280.58
4151.65
3568.62
3995.19
1810.2
2523.55
3480.35
5216.96
3265.12
2108.51
3189.18
1968.94
3585.67
1104.91
1534.68
3010.29
2434.37
6021.95
4368.25
4079
5194.78
5548.18
1785.48
3207.51
3628.34
2169.63
3087.24
2503.54
1734.71
4720.17
2667.77
4363.65
2304.25
2968.11
3473.9
3355.29
2999.52
2735.6
2858.07
2213.46
2030.78
2013.14
3701.34
2106
3421.93
2089.2
2053.55
2751.37
3878.95
3971.55
4127.67
1776.36
1786.55
2785.32
1957.1
1803.7
1707.25
2420.12
2666.41
2589.47
4657.64
3261.27
3513.24
2388.72
2867.66
2879.06
2971.04
2612.81
3562.9
3821.23
3691.29
1978.82
2534.07
3922.87
3787.63
5079.2
3885.62
2480.94
2627.85
3418.32
2562.85
3256.95
2809.68
3296.29
3459.66
3204
3664.93
3005.9
2980.85
3472.86
3672.76
2878.03
2494.01
2560.83
2926.24
2500.49
3078.49
2682.84
2415.74
3062.14
3381.65
3307.61
2949.1
3329.89
3526
3936.24
3385.58
3230.13
3886.32
3867.48
2800.77
2458.86
2467.87
1569.74
1497.11
1936.81
2819.32
4208.58
6502.03
9162.24
2420.08
1843.9
1420.38
4009.09
4811.49
2384.66
5597.53
4285.36
4764.32
3059.5
3032.27
4171.27
3702.98
2857.88
3991.23
4400.04
3411.88
2503.92
2395.63
1481.14
1453.09
2619.46
3461.45
2539.42
1977.65
2278.2
2962.9
2055.63
2077.53
1882.12
2410.88
2907.32
3976.05
3392.84
4105.31
2764.69
3122.28
3225.39
3462.1
3073.81
2794.99
2326.68
2812.6
2948.39
2445.41
3095.76
2527.09
3153.88
3296.14
3742.72
2950.63
3001.43
3342.27
2846.64
2978.63
2592.07
3234
3057.45
3192.75
1996.84
2366.18
2526.73
3802.55
3431.8
3613.13
3297.38
3091.32
2620.86
2496.73
2855.79
2689.98
3072.39
2760.84
2960.23
3255.99
3077.27
3197.99
3083.41
3258.31
3087.16
3286.5
3548.65
3038.9
2580.28
3021.3
2571.05
2501.79
2741.32
2596.68
2564.43
2455.64
2284.01
2890.23
7523.42
2116.64
1541.71
1474.41
1732.07
2673.5
2087.15
2081.96
1593.65
1462.21
2562.44
7975.84
3795.36
6258.85
3953.21
3158.48
4299.87
1157.58
1404.86
4471.8
3477.52
10745.9
7728.11
7438.22
2861.75
2669.14
2067.9
2421.41
2536.97
2520.68
2584.4
3747.92
1455.78
2340.45
1316.04
1725.38
1036.95
1515.14
3226.23
2958.63
3250.7
2790.56
2699.5
2744.11
3140.76
2853.76
2772.53
2748.32
2838.27
2875.33
2508.91
2988.87
2363.69
2358.88
2668.19
3155.03
2972.44
3257.77
2765.54
2891.4
2442.05
3277.06
2282.34
2579.05
2936.86
2385.63
3621.65
2588.09
3649.31
3291.87
3946.85
3088.06
2768.75
3943.58
2464.43
3480.34
3249.73
2207.76
2631.83
2028.34
2892.88
4262.86
1825.51
2442.85
1744.86
2138.41
2935.99
4808.79
3785.55
4138.85
3367.27
3190.01
2944.37
3236.47
3591.83
3018.48
2661.92
2593.31
3191.86
3418.19
3278.27
3488.95
3071.93
3056.75
3013.73
3755.97
3630.22
3895.71
1742.87
1363.62
1075.86
1099.38
2281.07
2994.78
2817.84
2819.92
2589.56
2016.04
3265.23
2966.87
2985.59
2845.4
2979.2
2771.35
3090.84
3018.51
3044.96
4015.26
3691.84
3046.11
3547.11
5497.09
2357.53
3784.25
1502.96
2747.98
2387.78
2554.92
1781.2
1454.97
2672.67
5361.96
5012.51
6002.91
3129.27
4665.99
5042.36
4267.48
5615.37
1936.32
1391.22
1115.84
1836.57
2794.51
3025.37
4914.56
3210.6
2106.45
1668.08
3371.01
1902.88
3742.26
SCALARS SignedDistance double 1
LOOKUP_TABLE default
119.434
132.301
118.768
119.105
106.155
132.987
231.158
95.2369
117.278
130.144
114.321
123.439
136.087
127.545
129.945
131.659
120.06
112.649
108.667
133.483
110.931
129.075
129.841
139.107
119.037
116.954
117.253
115.333
152.132
132.061
118.665
137.549
121.512
122.901
97.1071
94.0024
170.436
152.236
150.119
127.135
121.334
132.288
131.615
133.158
116.677
122.693
129.487
129.452
128.527
130.349
128.206
122.794
116.201
128.227
130.334
116.585
121.528
121.708
117.161
123.303
130.808
115.914
97.2167
105.143
98.8919
110.394
120.652
99.6294
108.8
108.78
90.5806
108.442
133.646
125.334
129.285
138.192
128.554
139.405
145.296
131.735
132.981
133.785
132.531
127.309
119.475
120.553
118.176
119.518
112.517
114.108
112.277
123.121
119.345
114.997
123.83
109.933
113.295
115.921
125.487
117.311
127.564
128.516
152.984
154.621
193.211
115.368
101.733
126.025
109.254
113.643
94.0363
112.214
116.236
112.249
112.853
122.784
119.981
126.335
90.4117
106.543
115.744
129.265
149.081
87.0475
93.2087
152.118
134.46
113.205
151.766
140.026
147.368
159.469
151.376
215.209
159.194
119.698
118.605
148.598
140.329
117.95
118.36
119.58
119.644
130.333
125.937
132.318
134.58
116.411
122.533
124.328
106.705
99.8001
112.505
148.429
118.953
115.809
125.411
153.548
125.982
144.581
132.015
138.207
124.999
119.406
113.621
140.297
128.705
140.992
122.2
123.475
129.46
123.246
126.038
126.451
127.072
125.894
124.029
132.585
128.966
133.391
136.33
135.647
129.27
126.973
127.11
125.895
129.238
134.701
132.851
134.262
133.359
130.655
111.94
112.492
125.112
117.328
121.1
117.255
119.648
136.415
129.351
131.967
127.842
128.623
127.923
130.761
117.794
115.223
120.296
120.915
115.142
119.422
125.543
118.834
123.871
128.958
132.117
123.607
112.725
124.71
122.934
111.995
114.084
111.751
107.14
135.485
116.322
109.824
114.99
121.379
111.777
121.191
94.7365
97.5218
95.0836
105.169
101.785
101.375
103.72
102.973
106.343
118.999
108.772
109.45
132.989
132.058
125.326
134.575
116.046
120.674
106.623
97.5592
94.8686
113.423
98.5989
114.663
97.8067
105.355
106.988
103.939
110.218
85.7001
98.0867
105.249
114.404
106.774
109.4
119.756
107.108
93.274
139.203
120.193
125.371
142.164
141.395
117.268
120.463
131.641
127.254
129.533
127.646
122.649
129.231
126.993
133.359
131.825
130.813
133.266
137.042
131.979
137.803
143.088
127.105
140.311
133.91
129.37
143.598
135.479
142.508
131.542
136.529
134.477
136.003
132.179
129.599
130.403
132.091
130.194
128.053
136.691
132.521
137.427
127.915
129.738
130.651
134.322
136.034
138.45
122.957
125.617
125.978
122.978
116.694
118.021
114.776
120.969
121.154
119.855
118.771
122.019
120.884
123.634
109.711
110.98
106.764
121.157
113.209
120.221
117.982
118.598
119.599
124.06
123.015
120.369
125.505
122.035
126.458
127.758
118.262
118.925
120.965
111.597
115.591
122.178
117.309
119.8
121.287
126.451
111.904
113.217
116.811
114.432
111.726
112.729
115.605
113.962
115.665
126.061
119.867
117.566
117.12
115.046
134.634
119.752
120.244
117.685
123.007
102.017
116.761
139.815
129.591
132.847
123.036
126.066
166.484
162.566
209.734
147.405
151.767
152.262
161.868
162.945
171.339
137.053
165.029
139.339
97.4213
98.6021
114.954
101.078
123.56
103.476
123.042
141.024
132.748
112.729
123.257
121.065
126.987
130.923
114.355
109.936
114.215
107.864
105.407
117.047
116.417
99.6949
93.4164
114.978
93.8537
100.277
116.209
114.013
116.737
117.919
113.251
118.425
114.054
110.579
109.438
126.466
124.786
131.189
119.843
124.821
123.928
123.217
123.881
121.205
94.5007
95.3362
105.921
100.203
95.6753
92.5501
121.499
110.421
118.471
114.981
114.447
110.787
126.969
130.892
114.266
119.461
152.837
137.519
145.398
92.41
85.2013
96.6012
84.464
89.5513
86.6519
97.4685
137.135
131.762
116.161
149.795
142.821
158.028
108.625
121.57
115.254
125.413
128.261
135.734
145.503
126.22
161.095
150.907
149.214
151.328
153.2
130.759
149.394
155.526
153.827
152.424
152.591
170.439
171.82
212.685
189.806
151.806
167.215
150.411
153.083
178.644
157.933
213.043
187.776
175.666
121.335
119.499
134.697
124.276
120.097
118.91
117.865
154.075
151.12
130.48
146.273
142.824
148.306
148.317
115.422
118.403
117.315
119.622
120.256
122.945
124.354
121.651
119.974
124.745
121.189
118.744
117.058
122.14
118.217
116.723
120.011
121.131
119.349
126.687
124.738
130.331
121.064
129.489
133.025
133.405
127.144
126.254
137.743
133.397
135.832
129.912
133.368
128.339
115.539
121.731
121.901
114.923
124.771
124.809
126.38
124.75
122.288
122.187
125.388
118.037
121.083
126.992
129.554
122.893
126.539
125.485
111.915
102.958
107.125
110.984
112.871
94.2437
115.321
102.22
91.7709
94.7254
118.253
116.28
120.191
124.288
114.154
103.665
110.1
109.434
157.055
151.885
151.214
152.297
141.115
121.401
115.295
117.119
126.667
142.118
115.566
118.861
117.75
116.893
116.283
127.399
116.79
121.447
118.963
123.008
122.736
118.806
130.808
153.797
175.559
158.02
150.216
141.622
118.113
129.801
123.817
129.853
138.569
128.86
161.161
132.533
135.695
139.734
139.15
138.579
139.648
125.486
127.79
131.103
130.082
138.427
145.713
145.541
145.634
131.446
125.684
140.315
136.171
144.97
