# vtk DataFile Version 4.2
vtk output
ASCII
DATASET POLYDATA
POINTS 642 double
-298.822 447.7 94.8151
294.144 442.101 92.8685
-298.849 -513.193 103.334
294.089 -508.967 104.521
-1.03391 -355.974 612.453
-1.17406 247.066 567.751
-0.327033 -310.199 -339.499
-0.475722 281.645 -409.722
486.549 -18.5653 -203.129
460.18 -36.7322 387.149
-494.672 -17.9842 -206.571
-469.354 -36.8856 390.734
-432.176 241.05 256.143
-272.639 131.003 544.088
-171.565 416.627 366
168.235 414.113 364.508
-0.374851 530.837 94.3623
178.478 434.313 -196.668
-180.656 437.218 -198.381
-297.556 150.649 -374.524
-491.651 270.232 -90.6059
-554.538 -29.4891 89.0902
269.674 129.003 539.8
425.611 235.08 254.295
-283.561 -223.716 568.3
-0.601082 -35.5004 664.555
-453.055 -313.069 -73.7437
-454.98 -319.407 274.952
-1.07541 -17.8437 -475.271
-280.375 -201.801 -348.539
482.554 265.582 -87.7599
294.189 150.425 -373.322
447.507 -316.058 272.377
277.916 -222.916 564.106
179.802 -518.22 401.361
-181.834 -520.852 403.186
-1.34789 -596.101 118.98
-174.54 -476.63 -175.991
172.509 -474.046 -174.453
277.9 -201.527 -345.317
447.692 -309.914 -73.3028
548.045 -29.5393 88.3366
-386.029 360.359 178.551
-320.105 352.255 323.653
-243.017 455.137 240.531
-386.239 51.5152 482.471
-373.004 191.688 418.574
-467.985 103.587 337.097
-88.1594 343.92 477.522
-227.16 285.239 469.758
-139.322 198.811 577.01
-95.9957 502.818 241.056
-154.199 514.746 96.5433
86.0435 342.903 476.137
-0.369115 431.81 378.636
152.407 513.717 95.5967
93.4432 501.277 240.707
238.626 450.686 239.093
-93.2101 513.116 -56.3228
-254.199 455.132 -57.0504
252.168 454.003 -55.6533
91.6467 510.789 -55.1752
-94.4954 378.123 -320.873
-0.721359 463.407 -215.224
92.7532 376.961 -319.852
-356.444 376.4 -156.628
-414.804 378.29 -7.99862
-152.223 226.605 -413.924
-252.006 313.261 -306.408
-523.904 128.996 -165.893
-419.281 224.455 -256.158
-418.566 72.6724 -309.929
-495.898 272.074 80.8705
-549.754 -17.3987 -66.0488
-567.632 129.867 -8.79573
-518.48 116.306 167.369
-527.359 -39.879 249.233
313.321 347.327 320.966
379.215 354.209 174.502
136.284 197.289 573.642
223.988 282.69 466.969
459.993 102.479 334.283
368.033 189.066 415.149
380.722 50.1051 478.747
-143.075 56.6521 634.053
-1.04341 115.68 639.394
-388.841 -129.437 487.683
-292.447 -35.9765 572.872
-0.734373 -204.862 653.036
-147.579 -138.204 638.617
-153.154 -296.751 612.645
-529.977 -182.882 188.625
-480.131 -182.297 341.634
-487.126 -175.879 -146.856
-531.323 -178.777 5.965
-393.409 -433.727 192.798
-480.559 -332.662 99.9096
-391.609 -427.375 12.0683
-300.462 -20.6686 -377.685
-398.457 -116.121 -291.059
-0.540812 131.838 -474.774
-150.046 72.7474 -458.334
-149.32 -269.199 -372.965
-146.651 -113.405 -429.18
0.242081 -158.226 -412.591
248.715 309.35 -303.562
150.327 225.395 -411.855
407.907 373.725 -6.0912
350.989 372.209 -154.008
413.605 69.9402 -306.334
412.325 221.175 -251.517
511.056 125.379 -160.197
387.859 -429.342 192.106
331.038 -434.59 348.617
243.833 -533.67 259.551
384.023 -126.658 482.969
382.528 -279.522 434.234
471.894 -180.08 337.844
93.8158 -457.302 525.917
245.07 -384.925 508.519
151.738 -295.975 611.278
92.4928 -597.389 263.84
149.95 -572.369 110.891
-95.6123 -458.746 527.603
-0.54833 -552.707 422.709
-151.837 -575.215 111.061
-93.6827 -599.307 263.914
-247.69 -537.894 260.256
99.95 -545.924 -37.7747
241.412 -505.979 -42.0511
-243.429 -509.327 -41.7867
-102.19 -546.12 -37.4308
100.234 -404.444 -276.986
-0.223466 -467.883 -173.888
-102.303 -404.392 -277.408
326.857 -412.849 -135.46
386.104 -422.786 11.815
147.017 -268.344 -369.977
235.878 -354.26 -278.512
482.016 -174.512 -144.71
383.021 -266.864 -226.935
394.722 -115.778 -288.042
472.16 -328.581 99.6843
539.954 -19.2597 -62.8297
526.075 -176.398 4.01292
519.011 -180.794 188.352
516.585 -40.3124 245.749
145.232 -137.85 636.931
289.716 -35.9837 569.556
140.066 55.8157 630.334
-336.809 -438.172 351.092
-248.316 -387.424 511.356
-389.474 -282.183 438.643
-237.051 -355.873 -280.472
-329.859 -415.205 -136.623
-386.671 -268.44 -229.336
299.256 -19.8901 -375.076
143.357 -113.497 -425.401
147.727 73.5498 -456.212
508.972 112.569 166.19
552.711 126.317 -7.64066
485.754 268.023 80.8884
-346.689 408.635 136.357
-317.348 415.098 214.134
-271.866 458.048 170.705
-381.045 303.076 294.235
-355.155 361.578 257.276
-415.153 306.13 216.809
-209.298 441.463 305.837
-285.433 407.865 285.53
-249.299 390.519 348.016
-431.723 7.8887 439.9
-433.353 78.9815 413.423
-473.266 34.4814 366.328
-328.445 163.128 485.344
-383.329 123.902 454.393
-333.391 92.6813 516.995
-454.149 170.117 301.93
-424.674 150.037 380.996
-406.745 217.362 342.999
-44.6157 296.671 524.343
-113.651 272.793 530.386
-70.9456 225.935 577.911
-200.484 355.159 420.973
-159.459 319.155 477.365
-130.259 382.613 424.143
-206.619 166.676 564.845
-185.154 242.434 525.048
-251.751 208.384 511.816
-346.226 273.66 370.614
-303.186 241.466 447.553
-275.689 322.336 398.958
-202.838 492.255 170.829
-227.097 487.463 97.586
-136.451 466.914 306.202
-170.501 485.16 243.084
-80.9349 531.702 95.022
-126.123 515.23 170.29
-50.381 522.837 168.181
42.4466 296.267 523.576
-0.944618 346.963 481.517
86.851 429.13 375.802
44.5804 391.513 431.28
127.695 381.016 422.506
-46.2542 391.792 431.865
-89.0698 429.544 376.624
222.701 484.113 96.2959
199.152 488.482 169.364
266.802 453.027 169.556
49.0102 523.866 168.188
123.422 512.943 169.071
79.7561 530.707 95.0665
205.47 437.858 304.12
167.488 481.985 242.167
133.316 464.697 305.47
-48.7644 474.153 312.356
47.6064 475.151 313.116
-0.418398 504.046 241.415
-202.165 494.302 20.9634
-279.908 453.607 16.788
-48.8952 530.8 18.9922
-124.523 519.484 20.1047
-219.568 450.101 -129.254
-170.681 491.765 -57.1225
-137.216 481.724 -129.626
276.215 450.495 15.2811
200.193 492.173 20.646
135.265 479.076 -128.65
170.155 489.191 -55.5118
217.438 446.234 -126.76
123.606 518.191 21.1488
47.6425 530.3 19.4791
-47.9968 334.012 -370.271
-0.534936 383.392 -326.828
46.7881 333.616 -369.858
-90.714 456.597 -210.994
-47.8467 426.143 -271.349
-138.433 412.985 -263.186
136.034 410.854 -261.659
46.4727 425.637 -271.057
88.9159 455.002 -210.32
-1.0643 520.246 -58.578
46.0364 493.815 -137.828
-47.9197 495.079 -138.088
-344.936 426.557 -36.2404
-359.53 410.524 37.6273
-273.441 408.72 -178.646
-313.196 423.591 -109.584
-459.791 331.782 -49.4452
-392.335 384.953 -81.7661
-429.434 329.217 -126.187
-77.203 257.185 -417.309
-124.999 307.562 -374.631
-277.68 234.658 -345.558
-202.353 273.696 -366.982
-224.406 189.454 -399.896
-172.969 350.514 -319.827
-219.52 381.773 -257.112
-514.225 57.3256 -190.202
-479.513 102.218 -244.787
-462.521 28.7018 -262.036
-461.749 250.859 -177.805
-476.52 177.965 -214.305
-512.517 200.202 -129.672
-366.793 114.261 -349.196
-426.107 148.489 -290.523
-366.427 189.847 -321.985
-312.206 351.238 -237.532
-344.23 274.659 -286.67
-393.663 306.625 -211.464
-404.406 369.129 82.1693
-503.097 277.942 -4.09203
-461.613 328.457 35.8409
-443.309 315.22 125.722
-468.017 259.065 162.04
-528.982 -18.0397 -137.666
-547.899 57.693 -116.261
-564.287 59.7889 33.517
-567.659 60.7479 -39.2587
-553.858 -19.808 11.0395
-555.372 132.146 -86.1892
-540.217 201.167 -51.0842
-503.338 33.6335 296.799
-503.16 -37.9696 322.13
-481.48 177.129 211.882
-495.32 106.524 260.33
-543.371 -38.1257 171.076
-524.563 36.2873 215.452
-541.096 46.8655 126.522
-539.28 203.987 36.6035
-556.456 130.677 77.3037
-521.343 198.749 121.136
311.166 409.69 212.413
341.543 402.422 133.526
244.558 386.553 345.615
279.949 403.192 283.151
406.948 299.292 212.012
347.351 356.736 254.368
372.197 296.132 291.427
68.3768 225.037 576.211
111.237 271.677 528.14
248.711 206.448 507.956
182.485 240.875 521.627
203.633 164.863 560.219
156.896 317.295 475.035
197.029 352.385 418.887
464.382 34.2002 363.313
426.416 77.5478 409.887
424.703 7.69903 436.596
401.514 213.106 341.44
418.388 148.163 377.654
447.164 167.254 300.472
328.989 90.7206 513.098
377.814 121.912 450.497
324.06 160.948 481.379
271.163 318.273 396.538
299.265 238.619 444.62
341.009 268.901 368.981
-71.902 160.99 615.844
-1.12945 184.144 609.009
-209.348 96.0852 594.694
-143.342 129.778 611.207
-1.00979 42.8012 658.375
-73.3345 87.0331 643.511
-73.4093 12.4679 657.745
-435.414 -80.7628 441.798
-394.434 -35.8861 489.599
-288.457 -131.927 569.144
-345.075 -83.1938 534.476
-339.93 -179.206 530.223
-343.285 8.78261 532.132
-286.912 49.6745 564.082
-0.795441 -282.708 641.613
-78.0758 -255.64 643.288
-77.1418 -330.001 618.059
-73.9683 -84.8199 660.156
-76.6944 -171.416 651.747
-0.521053 -117.675 662.32
-223.444 -261.995 598.884
-154.669 -222.232 635.426
-217.553 -186.399 611.574
-219.594 10.2931 608.507
-221.344 -86.9103 612.23
-145.934 -35.8367 642.236
-512.907 -109.937 297.558
-479.955 -109.126 368.16
-546.07 -110.556 142.862
-536.817 -111.396 221.051
-471.743 -253.138 310.955
-510.167 -183.248 266.004
-499.216 -252.976 232.207
-491.935 -98.3727 -177.31
-523.609 -99.2959 -107.198
-498.101 -247.97 -35.4581
-515.715 -178.669 -73.51
-473.199 -245.678 -112.459
-543.847 -103.187 -30.7733
-551.243 -107.684 48.0826
-349.737 -478.417 148.547
-399.309 -436.766 100.97
-349.193 -474.61 57.004
-474.253 -329.892 186.42
-442.733 -386.035 145.454
-428.841 -380.045 235.296
-426.397 -373.277 -32.0033
-441.372 -383.927 55.5574
-472.149 -326.999 13.4799
-540.165 -185.558 97.696
-513.163 -259.634 54.1946
-514.118 -261.13 144.292
-413.586 -18.9399 -304.545
-448.033 -66.9639 -251.907
-305.208 69.1373 -384.87
-365.551 28.3747 -349.448
-341.513 -161.788 -323.695
-354.473 -69.0921 -337.928
-293.568 -115.822 -368.479
-0.528077 208.728 -446.55
-76.6222 181.256 -450.589
-73.6622 28.573 -474.551
-76.883 102.239 -474.685
-0.626901 57.4575 -482.828
-154.475 147.329 -443.884
-225.071 113.819 -426.244
-88.2251 -290.971 -362.225
-85.8503 -220.912 -396.684
-0.180029 -237.256 -378.505
-215.317 -161.823 -393.149
-151.279 -195.005 -403.138
-213.838 -237.743 -365.069
-0.78606 -86.1087 -455.35
-78.666 -135.772 -427.905
-71.8927 -62.1809 -458.384
-225.796 28.895 -422.866
[...]
POINT_DATA 642
SCALARS Mean_Curvature double 1
LOOKUP_TABLE default
0.00328025
0.00236995
0.00427375
0.00384325
0.00526773
0.00416399
-0.00297143
0.004557
0.00353256
0.00408822
0.00416122
0.00431662
1.5253e-05
0.00320635
0.00365441
0.00368841
0.00136987
0.00314964
0.00323789
0.00220104
0.00415431
0.00301787
0.00330185
0.000315884
0.00441254
0.00296092
0.00328799
0.0029636
0.00501818
0.00325145
0.00427036
0.00309796
0.00315088
0.00462138
0.00355837
0.00363708
0.00322143
0.0052606
0.0042826
0.00338215
0.00339794
0.00396312
0.00249504
0.00401708
0.00421848
0.0037786
0.00343258
0.0036051
0.00373849
0.00292439
0.00398021
0.00459735
0.00337752
0.00369721
0.00159166
0.00417467
0.0043905
0.00421787
0.00353342
0.000575388
0.00189704
0.00300465
0.00385174
0.00398701
0.00389304
0.00404963
0.00540502
0.003679
0.00151104
0.00589659
0.00404134
0.00409001
0.00522512
0.00276181
0.00715094
-1.06055e-05
0.00293446
0.00378975
0.00189443
0.00369841
0.00298932
0.00371986
0.00352453
0.00381894
0.00434164
0.00416986
0.00181487
0.00342816
0.00221848
0.00160726
0.00353581
0.00310008
0.00297282
0.00372986
0.0022757
0.00299492
0.0040946
0.00340534
0.00081708
0.00298541
0.00509397
0.00504243
0.00613085
0.00379505
-0.00277471
0.00105235
0.00359417
0.00496536
0.0038769
0.00500754
0.00409195
0.00431229
0.00332354
0.00349795
0.00307739
0.00273583
0.00338716
0.00304849
0.00401738
0.00396727
0.00439414
0.00456548
0.0022948
0.00416388
0.00382141
0.00238046
0.00459883
0.00385208
0.00334641
0.00298203
0.00261885
0.0026969
0.00383152
-0.00520412
0.00336064
0.00387255
0.00332738
0.00515128
0.00359788
0.00376576
0.00366789
0.00331632
0.00410754
0.00198973
0.00368189
0.00312171
0.00262296
0.00209751
0.0038972
0.00410463
0.00359751
0.00386328
0.00322619
0.00329967
0.00379656
0.00363791
0.00169782
0.0030562
0.00544054
-0.000161793
0.00604132
0.00493016
0.00252124
0.00404148
0.00413263
0.00371795
0.00429035
0.00287279
0.00433055
0.00430059
0.0038448
0.00361583
0.00372857
0.00365624
0.00362621
0.00380278
0.00376229
0.00294836
0.00369621
0.00239293
0.00243878
0.00246952
0.00410081
0.00306171
0.00351342
0.00315575
0.00331462
0.0022232
0.00267078
0.00162063
0.00249893
0.00276662
0.0042432
0.0034
0.00439005
0.00430159
0.00518483
0.00416201
0.00269255
0.00248748
0.00296135
0.00331113
0.00327702
0.00310204
0.00319473
0.00312253
0.00316565
0.00402508
0.00397509
0.00371775
0.00363297
0.00500618
0.00429697
0.00431179
0.00422872
0.00324472
0.00425215
0.00203205
0.00341519
0.000337825
0.00350016
0.00353643
0.00151527
0.00293701
0.00352492
0.000230731
0.00369214
0.00344068
0.00290688
0.000570027
0.00372399
0.00359749
0.00389345
0.00387871
0.00403059
0.0034242
0.00369717
0.00387473
0.00378786
0.00387332
0.00343382
0.00355764
0.00333269
0.00346272
0.00676719
0.00171551
0.00296259
0.00491328
0.0061348
0.00506061
0.00356428
0.00381043
0.00389671
0.00107375
0.00381625
0.00302375
0.00384457
0.00243522
0.00397428
0.00608373
0.00380719
0.00398065
0.00363296
0.00297683
0.0064295
0.00480935
0.00425095
0.00439843
0.00447185
0.00407423
0.00209354
0.00491409
0.00474155
0.00229205
0.00220713
0.00314232
0.00444672
0.00378887
0.00629449
-0.000386619
0.0062751
0.00551047
0.00344281
0.00348398
-0.000305112
0.0026548
0.00240072
0.00185216
-0.000416339
0.00427288
0.00671814
0.00535329
0.0039675
0.00194463
0.00373723
0.00431441
0.00163053
0.00438419
0.00246413
0.00397364
0.0024318
0.00274898
0.00223432
0.00298321
0.00351178
0.00308155
0.00370516
0.00371777
0.00391287
0.00297485
0.00379146
0.00336273
0.00371426
0.00373591
0.00357309
0.00267762
0.00269786
0.00191763
0.00438252
0.0041999
0.00348606
0.00422292
0.00429067
0.00436301
0.00423462
0.003966
0.00370551
0.000525777
0.00332123
0.00373961
0.0038137
0.00345154
0.00481949
0.00454263
0.00413313
0.00373461
0.00186188
0.00258627
0.00611254
0.00602349
0.00344105
0.00295224
0.00265334
0.0030055
0.00406834
0.0035516
0.00227039
0.00493859
0.00290929
0.00292557
0.00326566
0.00234442
0.00250707
0.00239453
0.00401643
0.00307321
0.00346945
0.00337599
0.00319379
0.00421653
0.00394213
0.00366943
0.00391957
0.00292091
0.00329657
0.00389603
0.00354782
0.00447383
0.00378956
0.00415903
0.00385632
0.0017412
0.00291934
0.00406271
0.00310649
0.00202325
0.00334054
0.00367891
0.00304393
0.00408407
0.00579463
0.00514954
0.00370178
0.00568079
0.00304242
0.00336375
-0.00160006
0.00299734
0.00455702
0.00293135
0.00501202
0.00125535
0.00429176
0.0023033
0.00201892
0.00219733
0.00382042
0.00390011
0.00203487
0.00385231
0.00257489
0.00361022
0.00240859
0.00314388
0.00652047
0.00351327
0.00509407
0.00606437
0.00444982
0.00434693
0.0045228
0.0049796
0.00508966
0.00410784
0.00436083
0.00481364
0.00334039
0.00397828
0.0039468
0.00425558
0.00407571
0.00435486
0.00308012
0.00304976
0.00328897
0.00312182
0.00294579
0.00335845
0.00461256
0.0041325
0.00415212
0.00353105
0.00252953
0.00368061
0.00363063
0.00353702
0.0015181
0.00292378
0.00339997
0.0033524
0.00434397
0.00352229
0.00329277
0.00382127
0.00376727
0.00376864
0.00549088
0.00394383
0.00437236
0.00325489
0.00380707
0.00397683
0.00216212
0.00288175
0.00304433
0.00606511
0.00387979
0.00350004
0.00371246
0.00423354
0.00422983
0.00389553
0.00430944
0.00392689
0.00447895
0.00383897
0.00250251
0.00260706
0.00219386
0.00393082
0.00371889
0.00426693
0.00420089
0.005449
0.00318473
0.00508422
0.0051095
0.00639036
0.00273411
0.00332219
0.00141
0.00451372
0.00315145
0.00356579
0.0056304
0.00361574
0.00315678
0.00526685
0.00477682
0.0029141
0.00398401
0.0014089
0.00509359
-0.00511341
0.00493239
0.0042119
0.0052588
0.00609587
0.00579938
0.00510643
0.0037335
-0.00339996
0.00368515
0.00380563
0.00319457
0.00367203
0.0036366
0.00373998
0.00332325
0.00362545
0.00380778
0.00373989
0.00551841
0.00388111
0.00336676
0.00327417
0.00479192
0.00323624
0.00281925
0.00369401
0.00175823
0.00356834
0.00324961
0.00321494
0.00293047
0.00313368
0.00369327
0.00378877
0.0038229
0.00379187
0.00389803
0.00318217
0.00391599
0.00373362
0.00351733
0.00250972
0.00303874
0.00415213
0.00380476
0.000389641
0.0040173
0.00260403
0.00443214
0.00282455
0.0032981
0.00333325
0.00231761
0.00457089
0.00179503
0.00353938
0.00228617
0.00435017
0.00499028
0.00271906
0.00605802
0.00148626
0.00451556
0.00395056
0.0036915
0.00399329
0.00356902
0.00129703
0.00441789
0.00417631
0.00442117
0.00410135
0.00304747
0.00269502
0.00296769
0.00228857
0.00316762
0.00402349
0.0038475
0.00319771
0.00329081
0.00376055
0.004018
0.00372215
0.00382866
0.00379767
0.00220532
0.00339807
0.00366303
0.00419006
0.00342633
0.00388295
0.00387934
0.00348565
0.00542789
0.00316414
0.0057504
0.00373858
0.0036378
0.0031351
0.00367464
0.00340229
0.0035071
0.0034215
0.00351574
0.00359925
0.00322553
0.00326421
0.00352829
0.00370891
0.00376236
0.00377439
0.00350865
0.00298207
0.00204057
0.00429309
0.00384105
0.00408162
0.00363141
0.00287732
0.00393377
0.0029897
0.002993
0.00569554
0.00388108
0.00582347
0.00427974
0.00207844
0.00137119
0.00123387
0.00326387
0.00145592
0.00130254
0.00281271
-0.000297722
0.005103
0.00593858
0.0054389
0.0065456
0.0032534
0.00349032
0.00263017
0.00350396
0.00437031
0.0048277
0.00541523
0.00455627
0.005137
SCALARS CoVolArea double 1
LOOKUP_TABLE default
5402.65
5396.96
5102.46
5028.31
5351.91
4734.15
5528.29
5341.61
5120.42
4659.24
5270.82
4742.69
7138.69
6223.71
6089.32
6014.94
6622.63
7012.3
7044.27
7004.29
6974.35
7036.53
6145.96
7014.11
6474.53
6469.34
6473.54
6655.88
5989.4
6368.85
6713.76
6835.01
6462.91
6446.08
7029.5
7091.72
6464.94
5772.71
5755.84
6276.5
6341.82
6599.09
6399.03
6363.31
5771.11
5757.6
6537.19
5814.78
5901.13
6677.47
5790.43
6513.29
6062.02
5873.32
6708.69
5938.65
6464.09
5681.06
6948.64
6847.03
6586.65
7015.78
6508.92
7083.1
6460.22
7158.65
6003.55
6627.95
7680.72
6394.03
7314.83
6127.43
6516.96
6437.01
6280.88
7389.5
6012.85
6302.61
6295.67
5786.03
6562.46
5611.71
6337.58
5606.83
6490.67
5691.32
6326.47
6936.73
6590.33
7208.11
6422.92
6616.18
6167.38
6242.45
6850.39
6346.04
6561.47
6036.93
7470.44
6405.95
6316.23
6745.29
5312.34
6867.01
7038.4
7576.94
6611.68
5812.12
7020.01
6021.54
7119.73
6257.37
6197.04
6942.98
6239.21
6189.2
6785.04
5957.86
6748.68
7109.49
6327.67
6834.95
6369.51
6774.53
7448.48
6389.46
6878.14
6343.39
6768.4
6019.56
6080.39
6837.79
5577.28
7425.8
5617.2
6375.26
5953.2
5370.6
6341.95
6060.28
6502.29
6299.73
6442.01
6321.52
6549.75
6574.11
5958.06
7133.7
6715.4
6504.71
7070.82
7254.45
6923.25
6435.63
6510.27
6600.63
7226.89
6963.42
6710.17
7237.7
6126.23
6253.74
6375.75
6083.91
5987.78
6677.8
5922.38
6269.89
5598.93
5699.88
6278.54
5677.64
5771.11
5655.88
6371.66
5730.54
5689.39
6363.57
5823.45
6798.67
5855.73
6001.44
5631.9
6417.99
5987.66
5771.12
5807.57
6073.88
6568.68
7525.3
7517.99
7416.16
5978.75
6303.92
6264.16
5801.41
6007.77
5955.73
6755.08
5849.49
6014.23
6381.91
5999.29
5715.29
6029.02
6480.83
6240.3
5922.21
5980.44
6712.36
5917.92
5931.72
5524.06
5775.96
6183.87
7377.18
7293.76
7538.85
6709.14
6710.96
6833.64
6246.01
6734.78
6728.24
7152.32
6538.93
6500.32
7182.86
6661.5
6667.96
6180.93
6833.68
6417.29
6569.48
6388.35
7078.14
6526.8
6488.42
6447.8
6494.33
7044.55
7786.61
7870.86
7855.9
6300.31
6367.26
7260.7
6482.12
6154.89
6217.46
7254.94
6468.99
6600.87
7642.98
6895.58
6697.83
6780.99
7429.61
6119.16
6328.83
6192.54
7424.39
6704.95
6613.69
6146.36
6420.22
7234.17
8208.62
8289.07
8143.34
6460.02
6764.48
6159.38
6308.91
6997.23
6269.71
6221.7
6675.79
6011.96
6563.43
6219.44
6892.27
6042.05
5720.76
7495.88
6639.81
6441.39
6827.35
7393.16
7163.38
7226.1
7405.34
6015.03
6285.37
6194.41
5580.3
6271.08
5923.69
6709.74
5623.99
5980.17
6466.1
6026.65
5802.9
5923.23
6337.8
5534.34
5612.31
5519.58
6590.95
5608.07
6087.87
5564.03
5613.07
6247.59
7303.46
7335.85
7373.3
5700.72
5504.64
6438.6
5747.01
5758.21
5780.76
6530.51
5950.64
6039.14
7144.9
6349.99
6211.28
5959.81
6489.69
6268.72
6432.18
6422.67
7024.55
6661.86
6540.06
6030.72
6236.92
6875.58
7588.98
8078.13
7771.26
5946.51
5886.35
6752.93
5975.01
6179.85
6128.34
6735.65
6440.67
6509.83
6807.81
6299.91
6060.26
6613.82
7035.64
6181.98
6125.98
5921.38
6685.96
6149.06
6261.89
5982.45
6034.88
6648.7
7405.34
7442.14
7343.23
6410.23
6428.63
7062.26
6419.02
6140.91
6592.16
7042.14
6466.87
6624.52
6479.68
6176.77
5809.06
6456.53
6941.62
5909.37
6417.54
7123.82
6721.41
5864.57
5737.99
5931.86
6397.43
6491.03
8018.46
7772.28
8110.75
6567.62
6434.27
7375.71
6749.58
6570.34
6818.45
7403.3
6183.72
6113.31
7068.25
6113.12
5998.42
6363.09
7153.55
5984.44
6216.79
5940.45
7084.79
6356.06
6103.94
6385.62
6536.91
7176.39
8075.18
7972.78
8101.26
6073.11
6404.99
6244.66
6846.08
6364.6
6073.65
6239.95
6314.69
6984.1
5766.32
6174.91
5728.84
6696.31
6241.28
6279.52
6001.15
6154.24
6741.57
6606.95
6793.21
6434.79
7175.17
6739.88
6647.75
5890.54
6527.73
6728.13
7741.19
7715.04
7838.92
6470.59
6259.82
7142.5
6234.17
6027.77
6270.2
6611.21
6591.64
6825.83
7428.36
6849.62
6687.7
6824.48
7401.42
6365.32
6536.01
6397.13
6577.59
6265.58
5987.28
6365.51
6332.4
7211.77
8046.57
8062.02
7607.46
6243.16
5977
7268.51
6063.51
5707.29
5857.98
5944.96
6007.39
6259.05
5979.51
5846.8
5763.81
6082.46
7292.39
5991.97
6722.93
6039.66
6160.6
6246.71
5151.39
5164.85
6298.2
6227.38
8749.39
8001.63
7935.35
6047.51
5899.8
6317.26
5919.3
5862.38
5950.36
6404.55
5851.07
5289.44
6318.77
5667.42
5694.05
5449.29
6204.49
6269.26
6272.64
6278.09
6467.87
6034.58
5913.89
6076.11
6107.24
6430.93
7135.2
7137.04
7173.86
6035.67
6535.8
5942.9
5996.26
6480.28
6136.69
6335.71
6717.59
6278.65
6245.3
6021.2
6606.13
5752.4
5652.57
6517.4
5893.86
6177.84
5857.08
6653.8
7330.2
7406.37
7256.62
6406.76
6788.12
6168.78
6617.86
6946.34
5831.84
6345.99
5748.25
6195.6
7034.1
5672.73
6498.73
5752.41
5740.96
6422.5
7938.78
7529.56
7744.14
6507.46
7132.3
6438.45
6479.65
6979.22
6822.86
6903.92
6659.2
6802.55
7275.25
6366.17
6878.65
6299.82
6304.03
6759.14
7996.04
7910.67
7868.42
5272.08
6239.47
5425.99
5685.61
6465.28
6137.22
6548.81
6092.82
6071.02
6424.6
6429.29
6525.91
6210.57
6149.95
6597.65
7253.87
7291.76
7258.36
6259.69
6951.03
6429.34
6218.6
6859.46
6304.97
6501.16
6262.36
5887.89
6732.11
6595.25
6830.56
6397.32
6106.68
6463.47
8157.36
7891.4
7968.15
5973.2
7008.34
6666.81
6472.34
7311.06
6064.2
6608.49
6008.15
5862.01
6421.85
6173.03
6777.18
6041.29
5913.87
6529.56
7072.5
6954.42
7226.58
SCALARS SignedDistance double 1
LOOKUP_TABLE default
301.261
316.476
301.006
308.709
246.534
333.625
398.126
248.354
300.573
334.044
290.49
319.066
345.899
328.089
326.397
332.302
304.961
281.61
274.202
280.063
243.666
323.509
336.401
357.97
297.6
297.005
305.077
298.507
336.27
318.342
261.805
285.405
312.576
309.126
251.77
244.761
359.921
347.77
342.835
322.425
314.616
333.324
321.421
332.613
304.71
320.969
337.495
334.798
333.122
337.583
329.089
309.954
293.64
336.164
332.958
298.779
308.965
315.703
289.875
295.916
305.074
290.082
253.937
268.501
257.954
257.508
292.679
255.614
264.542
251.568
236.765
274.986
317.441
303.813
298.977
344.415
328.463
346.163
340.358
336.4
345.102
347.118
347.045
331.857
308.101
308.971
307.4
310.43
286.551
293.554
259.864
312.128
308.491
300.781
310.326
289.969
295.738
302.787
305.671
303.108
272.191
300.97
358.999
345.177
387.408
273.087
261.052
303.396
263.482
283.723
248.663
265.373
302.888
289.641
290.15
318.884
305.766
323.576
234.101
266.572
268.624
288.119
326.417
228.007
227.506
329.093
288.158
283.27
366.069
325.355
323.431
371.78
369.263
398.87
375.32
315.476
311.987
351.395
327.313
309.241
313.105
310.367
310.303
313.369
321.252
329.511
344.754
298.796
317.729
317.27
276.514
254.909
290.926
326.3
310.666
306.462
315.155
339.727
304.226
357.706
314.088
331.753
308.745
309.585
298.595
341.735
325.297
337.391
315.267
317.628
327.145
319.732
327.491
326.865
332.397
329.253
323.869
342.044
335.764
342.891
337.167
335.357
329.253
332.575
333.902
330.511
330.368
337.184
337.339
342.596
340.015
337.637
294.512
293.891
316.107
303.328
297.936
297.619
307.731
337.896
336.67
331.759
333.793
335.429
333.797
329.862
304.553
303.07
311.607
307.096
299.889
297.801
323.623
309.36
319.452
327.907
327.756
316.849
291.958
302.713
296.772
288.101
285.495
288.99
279.001
311.829
297.868
284.87
293.534
292.842
290.653
294.265
249.135
253.576
250.648
269.54
261.102
262.437
268.37
262.926
273.315
295.371
279.669
278.443
299.779
315.867
283.456
281.537
268.551
267.665
243.038
250.518
250.794
267.519
257.52
266.14
256.719
267.244
271.821
260.87
280.24
231.058
234.426
235.603
278.194
249.487
254.377
264.177
252.353
240.359
323.093
281.595
301.345
334.156
345.389
294.227
279.867
325.1
303.882
312.257
265.646
264.931
331.85
323.643
344.51
339.911
330.077
337.212
337.548
300.611
331.287
336.31
324.79
326.83
337.346
330.522
354.756
341.593
355.826
333.599
340.073
344.646
343.663
338.293
339.992
340.137
340.928
339.211
332.025
353.155
346.359
353.727
333.452
339.548
341.586
347.178
348.523
352.715
316.64
321.058
320.728
317.671
299.825
304.899
297.642
312.111
313.785
305.74
308.27
309.115
315.112
318.641
272.829
275.153
252.895
299.765
289.101
294.978
281.088
288.928
302.587
312.798
307.624
304.258
318.182
313.853
320.697
319.537
304.292
309.304
305.573
294.496
296.58
307.821
303.095
305.49
303.134
314.371
292.457
294.669
301.885
296.215
292.14
292.994
303.472
298.074
301.964
315.836
304.061
300.459
296.632
295.633
300.649
294.883
310.583
304.113
312.89
252.769
258.935
317.274
288.316
303.638
269.499
290.14
379.589
377.142
394.92
328.605
353.078
331.533
366.835
369.621
357.679
318.044
334.756
317.612
255.94
253.376
276.365
264.048
275.253
265.917
274.612
325.385
305.38
255.699
277.033
282.659
283.599
283.202
291.214
270.158
284.963
261.467
260.79
280.394
255.204
250.912
246.662
265.526
249.908
257.44
303.417
294.19
300.854
302.187
296.077
306.094
268.933
287.959
271.245
326.531
322.172
331.935
305.099
317.394
316.327
318.452
317.573
310.404
235.048
245.904
253.748
255.796
247.828
240.652
290.413
263.338
285.138
296.308
289.996
277.892
303.476
314.145
258.457
289.516
344.733
312.172
322.172
231.071
223.083
233.916
222.711
233.74
226.244
238.593
311.37
302.03
295.207
326.479
312.314
349.047
261.478
284.095
255.184
255.35
253.017
294.262
327.301
318.404
368.451
349.773
331.598
342.769
357.933
313.325
327.488
362.236
348.013
331.892
354.128
374.338
383.508
398.49
393.019
370.562
385.143
358.943
363.454
392.397
375.67
395.108
392.933
385.984
316.146
310.782
323.83
319.353
313.214
313.549
312.542
371.134
361.493
323.777
335.794
331.595
346.186
332.926
303.14
308.404
302.853
312.91
312.026
314.11
317.622
313.405
316.164
319.973
317.19
313.699
306.15
315.448
310.024
305.81
310.962
304.454
306.167
323.566
313.368
321.332
312.238
319.426
335.621
340.757
320.639
324.399
345.141
337.792
338.818
321.552
332.693
318.365
277.484
310.457
295.845
291.107
302.655
324.297
327.006
324.524
317.635
313.221
321.748
303.601
310.55
326.185
329.438
312.695
320.519
313.048
288.527
260.583
276.205
285.84
289.223
240.607
271.691
253.445
239.748
246.065
308.212
296.021
302.697
303.043
292.039
264.475
275.862
282.17
368.155
333.583
351.599
338.74
321.379
310.395
305.36
307.094
315.86
321.95
300.51
310.746
306.137
304.095
305.092
316.761
307.873
312.941
304.089
319.221
312.055
301.348
304.65
369.935
357.835
365.873
347.065
329.629
261.46
298.191
274.211
290.663
318.794
320.696
332.929
320.698
347.403
347.809
352.878
354.464
357.969
293.461
284.954
282.903
317.165
336.277
335.527
358.107
347.455
314.771
297.943
344.341
317.98
350.629
