# vtk DataFile Version 4.2
vtk output
ASCII
DATASET POLYDATA
POINTS 642 double
-172.153 264.396 91.4382
159.229 250.437 78.6913
-192.503 -320.353 124.314
176.993 -314.268 128.879
-4.84706 -293.783 436.387
-6.95718 85.4497 377.693
1.39815 -173.739 -114.104
-2.97721 186.247 -251.226
294.964 29.7958 -94.6436
237.766 -53.488 274.668
-312.912 33.0454 -97.7897
-261.328 -57.4545 276.68
-214.697 131.206 163.664
-150.045 28.8921 358.198
-103.878 235.645 211.522
88.5618 234.488 210.044
0.551768 301.91 71.8378
108.713 253.159 -115.354
-110.314 261.077 -118.829
-196.606 112.045 -178.929
-343.954 171.65 -67.5042
-316.09 -39.4679 52.5294
143.53 25.1964 349.411
206.44 109.152 163.957
-149.062 -216.376 389.106
-3.40718 -42.4564 441.448
-267.986 -204.362 -1.22166
-263.499 -226.715 209.907
-5.02345 72.3369 -242.867
-181.475 -124.64 -153.068
319.124 165.266 -67.0819
191.835 105.488 -183.015
244.843 -221.524 204.184
133.008 -211.193 381.821
96.6523 -372.896 325.166
-103.751 -376.459 329.601
-1.69766 -345.087 216.886
-179.092 -260.029 -39.4356
165.3 -260.262 -39.5853
170.551 -126.524 -145.326
254.566 -198.5 -5.60891
303.394 -34.7339 43.8919
-203.694 222.802 117.101
-163.12 219.27 188.895
-139.932 274.043 158.239
-216.231 -6.91909 326.19
-204.725 63.8911 284.127
-251.772 17.6468 245.947
-55.1742 177.274 297.179
-112.606 145.522 296.388
-59.6066 62.8693 390.367
-83.111 289.794 154.727
-92.2546 302.927 88.368
42.7762 176.811 295.307
-1.26827 228.927 231.739
79.1435 302.456 83.5831
68.9998 289.886 155.836
122.137 267.807 156.099
-60.4804 300.921 -14.7546
-177.124 249.421 -30.9907
167.205 240.381 -26.1302
52.7389 301.1 -9.76758
-60.3023 238.652 -199.018
-4.24647 281.071 -130.162
50.6596 236.199 -197.536
-277.36 222.779 -83.029
-293.896 206.545 -58.0404
-94.0274 151.951 -252.186
-175.552 199.504 -167.872
-355.86 125.248 -86.4485
-311.565 152.158 -143.419
-291.33 95.2464 -152.098
-317.996 155.069 -19.0312
-325.332 25.5879 -38.4474
-349.769 125.97 -62.7647
-282.634 66.0708 72.9033
-290.022 -72.9719 189.036
139.043 209.678 186.716
180.852 212.491 93.5635
47.1277 62.1792 382.392
102.548 139.875 292.048
232.237 19.9795 244.017
193.186 59.4664 278.281
201.928 -11.4081 320.678
-61.4628 5.33537 426.732
-7.61263 26.4158 426.795
-221.93 -112.443 331.372
-169.343 -50.1905 377.574
-2.3839 -193.592 436.914
-77.6323 -138.62 431.064
-93.1186 -253.386 432.684
-303.056 -143.062 150.097
-274.72 -140.24 245.611
-298.801 -103.234 -52.6317
-308.213 -115.489 34.9081
-239.077 -287.014 167.098
-288.841 -224.77 108.342
-242.861 -267.289 66.0479
-200.628 11.0454 -173.678
-253.946 -59.737 -126.374
-4.49541 123.758 -272.283
-76.9233 119.779 -252.369
-173.147 -147.397 -135.835
-119.867 -35.0669 -196.689
10.5918 -8.63623 -161.685
166.342 190.909 -159.602
86.4845 149.137 -249.308
271.175 202.151 -52.3295
257.192 220.986 -82.9935
276.795 89.6179 -146.285
291.879 148.37 -136.501
333.707 112.848 -83.8297
221.79 -278.752 167.808
172.621 -304.766 279.061
127.434 -351.187 251.735
207.359 -102.238 325.95
201.153 -215.747 311.882
255.959 -138.994 237.007
44.9225 -345.434 402.393
125.095 -291.866 383.436
80.0562 -253.236 429.29
47.268 -389.337 286.085
109.451 -339.491 165.497
-54.3189 -349.325 407.28
-4.98948 -408.701 346.438
-121.479 -339.492 173.951
-56.8128 -390.35 290.756
-137.967 -357.259 254.726
142.271 -292.727 57.1054
163.308 -292.212 28.3365
-178.601 -296.301 33.2566
-142.414 -288.423 57.0459
140.604 -212.896 -84.7104
1.23814 -205.444 -84.06
-142.218 -210.415 -83.3977
198.02 -249.004 -33.0713
228.97 -260.065 60.2225
151.254 -148.82 -137.477
164.477 -206.211 -104.153
287.312 -100.259 -49.7783
227.574 -166.611 -87.9494
248.226 -59.0369 -119.797
268.395 -220.864 106.224
310.013 16.1063 -30.8997
297.884 -106.787 18.6624
276.048 -142.934 155.54
267.688 -72.9261 182.518
65.4081 -138.053 428.918
160.316 -51.6477 372.165
48.8644 3.71352 418.738
-189.44 -310.149 285.624
-139.936 -294.626 388.81
-220.061 -218.233 322.421
-176.771 -209.161 -108.632
-206.291 -253.52 -34.9045
-237.336 -168.478 -91.6745
197.454 17.6546 -162.645
97.3673 -48.8302 -205.187
68.6937 125.932 -252.13
265.492 51.903 68.6323
324.024 109.351 -63.0839
292.066 152.659 -19.6203
-191.216 244.531 105.029
-171.278 254.076 146.732
-153.958 276.399 131.979
-180.192 187.624 177.182
-181.408 229.54 159.711
-205.817 197.251 124.408
-124.967 264.696 181.009
-155.526 249.42 173.714
-136.863 233.439 201.345
-240.532 -31.2699 302.92
-237.672 5.84719 287.877
-259.073 -18.9874 262.962
-186.293 45.7796 321.843
-212.341 28.5954 308.616
-189.664 11.8721 342.22
-240.789 56.9786 218.205
-229.691 42.457 268.328
-211.883 89.8176 236.185
-27.8163 130.636 330.246
-53.2519 114.624 336.763
-35.003 74.5569 388.652
-102.93 195.549 260.457
-82.5752 167.742 297.916
-77.2596 203.567 265.257
-98.7085 46.5272 377.869
-89.94 97.8039 334.607
-133.481 74.988 332.154
-175.53 140.672 230.668
-157.784 102.085 289.009
-136.549 182.221 243.741
-124.215 293 132.369
-132.96 290.972 96.0605
-99.5889 272.862 179.204
-110.816 286.291 158.903
-66.3731 308.891 76.9486
-92.526 300.273 126.471
-53.1819 297.71 118.305
17.1915 131.86 329.916
-4.22333 176.357 297.882
54.7042 231.989 222.324
25.5756 202.517 271.292
63.8211 202.004 261.298
-34.787 201.583 272.352
-66.581 231.42 227.44
113.617 285.47 88.4466
106.933 288.457 129.7
136.274 268.316 129.274
47.0302 298.637 119.047
76.9815 299.729 124.419
58.3714 309.098 77.2745
107.217 260.317 178.967
93.6462 283.017 158.627
82.7823 271.994 178.748
-45.558 265.367 182.325
40.9682 266.455 181.951
1.16599 285.032 153.507
-115.283 297.161 41.3689
-168.682 255.379 25.9364
-41.5469 307.927 34.1768
-77.7035 311.417 39.7231
-142.671 260.053 -70.1696
-98.339 293.387 -15.1198
-81.7618 291.148 -70.9682
161.082 244.869 18.2679
104.653 294.349 37.9949
73.3834 285.58 -67.1767
92.6735 290.125 -9.44949
144.299 247.416 -74.2105
69.3106 310.179 41.5426
35.9999 311.224 34.9795
-31.3609 216.393 -229.028
-3.37179 240.395 -203.56
24.0191 215.698 -228.756
-55.2543 275.872 -127.187
-31.6743 261.916 -166.947
-86.0987 254.426 -163.548
76.2456 249.94 -160.455
23.2483 260.701 -166.526
45.5689 273.03 -126.928
-3.47989 301.337 -16.7169
22.3928 295.394 -77.6579
-32.371 296.372 -78.2184
-249.558 227.522 -65.4405
-220.467 214.454 -10.0616
-206.287 217.678 -82.882
-245.063 228.857 -64.1508
-319.562 193.019 -64.0859
-287.03 217.91 -70.7723
-313.997 205.996 -76.479
-47.7889 170.774 -254.34
-77.4251 201.604 -230.048
-192.865 155.024 -183.988
-122.975 179.233 -221.828
-133.766 135.656 -237.541
-106.436 223.501 -195.512
-145.556 230.911 -153.444
-340.245 94.5779 -96.3197
-327.817 112.834 -124.051
-309.075 68.9744 -127.908
-338.741 167.413 -100.275
-341.451 135.568 -117.808
-362.821 142.992 -78.117
-269.791 108.89 -165.836
-304.163 125.625 -149.636
-279.483 134.827 -163.745
-243.133 205.883 -131.142
-265.225 177.529 -151.477
-295.474 196.824 -117.621
-239.106 188.792 21.8034
-333.809 166.315 -48.9207
-312.565 179.533 -35.4897
-251.998 166.733 31.0265
-261.2 137.451 45.0327
-324.984 30.8842 -66.8463
-349.721 101.31 -70.2014
-328.379 71.3812 -29.1933
-343.722 98.6394 -58.9086
-321.048 1.33046 5.43045
-356.488 128.703 -70.7454
-356.371 139.209 -66.5257
-271.903 -21.0984 224.527
-276.706 -61.9924 237.587
-261.415 78.6764 120.905
-264.766 24.1726 191.932
-301.357 -65.2141 126.736
-282.419 -16.0522 159.144
-302.128 13.1731 50.1876
-339.04 137.792 -36.4778
-325.05 111.427 -18.0142
-310.502 121.728 -1.0971
150.367 247.047 142.411
174.853 231.009 85.6927
116.946 227.664 198.779
135.4 244.153 169.544
189.785 175.828 109.402
157.67 224.686 155.049
160.252 167.961 181.438
19.9962 75.0502 384.39
41.5508 117.068 333.364
125.333 73.0158 324.888
81.1856 98.2577 327.997
91.5149 45.2295 366.284
70.8235 164.607 294.184
89.7128 190.988 257.15
236.301 -15.178 261.225
220.647 4.97341 283.051
221.73 -29.8468 300.737
201.461 78.1482 237.217
215.172 41.0122 263.002
223.234 53.0054 219.575
177.378 6.6271 336.05
198.899 25.8046 301.492
174.457 42.4376 314.553
123.041 172.354 243.442
147.529 96.2512 285.372
161.149 125.654 235.921
-35.3025 45.8648 413.995
-7.93406 54.0418 408.236
-99.0424 18.3014 396.313
-62.0543 32.4481 412.878
-7.54191 -1.57548 438.184
-36.7587 15.1101 431.477
-36.151 -12.3781 439.778
-248.301 -76.4865 303.316
-223.703 -51.1125 329.861
-161.374 -124.413 378.116
-198.294 -78.007 357.05
-187.097 -164.635 353.331
-195.546 -27.8501 354.061
-162.974 -8.66798 369.921
-2.49261 -254.009 437.049
-56.4035 -235.719 437.773
-50.4867 -275.223 436.692
-37.0841 -81.7391 433.461
-49.5397 -164.34 435.99
-1.03848 -107.933 441.948
-116.962 -242.867 417.451
-86.2751 -220.335 429.043
-106.127 -194.604 411.65
-111.451 -22.8213 399.897
-113.666 -89.7886 405.64
-68.3693 -46.044 429.796
-288.155 -102.858 215.606
-271.564 -95.5734 261.261
-306.349 -101.006 116.225
-302.401 -107.161 171.589
-269.194 -184.711 231.182
-294.984 -138.054 196.883
-287.39 -182.12 171.506
-306.983 -47.586 -73.6137
-317.695 -54.1591 -40.7317
-290.267 -160.438 18.9928
-309.918 -107.154 -18.8159
-280.791 -150.031 -31.2392
-320.14 -65.8189 -3.70924
-318.556 -80.58 46.8229
-218.486 -305.876 146.196
-247.423 -279.95 115.269
-220.384 -296.121 96.8245
-282.503 -228.369 146.72
-269.181 -255.819 131.926
-253.462 -259.8 187.595
-258.511 -237.241 31.4946
-269.602 -248.924 89.1023
-281.442 -218.755 62.5276
-306.475 -144.111 94.7292
-300.482 -183.229 84.2371
-304.421 -190.556 123.404
-273.845 29.6031 -138.89
-285.297 -14.3901 -112.689
-208.584 84.8283 -174.282
-256.422 61.7203 -162.134
-213.578 -97.577 -141.825
-233.204 -23.0347 -151.751
-186.163 -64.9469 -169.716
-3.48059 141.21 -274.888
-44.398 132.451 -270.366
-33.4514 91.2141 -251.672
-37.0766 121.045 -264.794
-5.32097 109.886 -262.527
-88.877 128.966 -256.62
-128.51 128.026 -234.924
-122.188 -162.154 -119.408
-125.898 -103.372 -145.595
3.42896 -126.606 -111.268
-161.606 -81.604 -169.865
-167.702 -90.6161 -166.77
-178.595 -137.652 -144.689
7.335 62.1595 -229.757
-100.824 -22.676 -211.518
-48.828 35.3354 -221.786
-129.37 74.7175 -204.526
-79.4546 37.2216 -218.976
[...]
POINT_DATA 642
SCALARS Mean_Curvature double 1
LOOKUP_TABLE default
0.0104473
0.0104907
0.0132255
0.0078439
0.00881912
0.00386122
0.0655591
0.00937155
0.00236424
0.00841899
0.00438702
0.00863389
-0.00230052
0.00413245
-0.00132109
0.00505285
-0.00452849
0.00388101
0.00244532
-0.0112235
0.0385373
0.0121826
0.00507286
0.000455443
0.00165021
0.0107407
0.00668058
0.00512807
0.0261741
0.0339265
0.042884
-0.00539124
0.00409315
0.00130949
0.0157672
0.0108995
-0.00511685
-0.0352541
-0.0297345
0.0081943
0.00836044
0.0140215
0.0180304
0.0101172
0.0155153
0.00939523
0.00733741
0.00578255
0.00961931
0.00659511
0.00796936
0.0122599
0.0030181
0.0109492
-0.000111015
0.00513953
0.0172209
0.0151095
0.00295482
-0.00236867
-0.00383374
0.00423886
0.00902233
0.00830532
0.00920797
0.0196016
0.00430527
0.0138794
0.00332232
0.0208167
0.02014
0.00856235
0.0133842
0.000433103
-0.00678621
-0.0019654
0.000827724
0.00359954
0.000765414
0.00462361
0.00625619
0.00860961
0.00788866
0.00884473
0.0127861
0.0116236
0.00503735
0.00815937
0.000756186
0.0123592
0.0184941
0.00535011
0.00599095
0.00917907
0.000704883
0.00930176
0.0116721
0.00446179
0.000881893
0.00491581
0.0410943
-0.00383212
-0.010529
-0.0627585
-0.011111
0.000331548
0.0162407
0.00563199
0.0228689
0.00831975
0.0161311
0.0422525
0.0072002
0.00541572
0.00424323
0.00707562
0.0100549
0.00761624
0.00814464
0.0123439
0.0216778
0.00816118
-0.026099
0.0118536
0.0262299
0.0111246
0.000633741
0.00487548
-0.00683507
0.064801
-0.0953373
-0.0039242
-0.00263911
-0.0250041
-0.00377581
0.00720899
0.00606532
-0.0189827
0.0802257
0.0102817
0.009543
0.00958882
0.013884
0.00589035
0.0134563
0.00293383
0.00241022
0.0103345
0.0108197
0.00984361
0.00725488
0.0110198
0.0129775
-0.0509355
0.00861709
0.0082401
-0.00233997
-0.000990212
-0.00434814
-0.00360362
-0.00573808
0.0106251
0.00821991
0.01408
0.015024
-0.00219494
0.0158389
-0.00164079
0.0153015
0.0138696
0.010193
0.00675026
0.00742589
0.0076605
0.00744816
0.00888976
0.00882949
0.00293402
0.00717467
0.0039729
0.00224634
-0.00082209
0.0120619
0.00884252
0.0110079
0.0116228
0.0026847
-0.00264711
0.00298369
0.000228648
8.15537e-05
0.00348886
0.0177345
0.00757668
0.0111348
0.0193296
0.0115523
0.0174219
0.000993198
0.00510146
0.00419389
0.00129411
0.00790913
0.00996083
0.00504289
0.00263198
0.00285037
0.016096
0.0135805
0.00275311
0.0202205
0.0144482
0.0138116
0.0175705
0.0156447
-0.000934261
0.000505342
0.00569564
0.00817068
0.00178626
0.00329804
0.0171748
0.00609833
0.00386922
0.00965222
0.000223983
0.0105508
0.00591314
0.00427559
0.00130056
0.0163303
0.00932279
0.00985821
0.00809726
0.0115092
0.00410184
0.00595288
0.00949108
0.00782594
0.00663378
0.00397016
-0.000678406
0.00757365
0.00687488
0.00100968
-0.00857327
-0.0174494
0.046663
0.00682552
0.0414623
0.0367689
0.00547009
0.00980509
0.00622788
0.00606867
0.0329132
0.00841181
0.00812448
0.00991434
0.00630227
0.01112
0.0151781
0.0300714
0.0557397
0.0111754
0.0153944
0.0146153
0.0123021
0.0111886
0.0139966
0.000369095
0.00848329
0.0101604
5.45077e-05
-0.00482849
0.00814722
0.0335211
-0.00451204
0.0152932
0.00524754
0.0482488
0.0266456
0.00482858
0.00517253
0.00367158
0.00435815
0.00165172
-0.000187551
-0.00324138
0.0247097
0.00649512
0.0053029
0.0137601
0.0116085
0.00831804
0.0147645
-0.00296205
0.0118732
-0.00341209
0.0102667
0.000182278
0.00378362
-0.00218077
0.0021054
0.0088336
0.00694726
0.00629851
0.00795865
0.00969345
0.00546014
0.0099748
0.00475466
0.00775147
0.00879931
0.00703995
0.00438167
0.00139816
0.00105328
0.0154325
0.00936988
0.00670361
0.0111981
0.0139133
0.0170629
0.0159548
0.00947533
0.00619754
0.0022078
0.00694429
-0.00269462
0.00955627
0.00687344
0.000459493
0.00678716
0.00733176
-0.00343973
0.00281885
0.0101711
0.00769492
0.00877938
-0.00445794
0.000648075
-0.000225857
0.0096503
0.00537996
0.00785136
0.0019733
0.0113354
0.00318367
0.0100315
-0.00125521
0.00940224
0.00977688
0.000354175
0.0123978
0.00122342
0.00667698
0.0102067
0.00754566
0.0106255
0.0061553
0.00814942
0.0107853
0.00484683
0.00642694
0.00927095
0.00658837
0.00362486
0.00766022
0.0177648
0.00136733
0.00446539
0.000620871
0.00889042
0.00210241
0.00370137
0.00832917
0.022233
0.0356615
0.00536071
0.000402852
0.00126702
0.0540217
0.00169823
0.00327686
-0.00353805
-0.00838742
0.0338078
-0.0414226
0.028109
-0.0234771
0.0281477
-0.0153014
-0.00633419
0.0047188
0.011553
0.00843104
0.00638237
0.00672167
0.00762494
0.0706298
0.00586866
-0.00342678
-0.00592181
0.0102804
0.0401312
0.0246234
0.00116671
0.0268545
-0.00725545
0.00994111
0.0171699
0.00880295
0.0174245
0.0183273
0.0118294
0.0559734
0.0152244
0.02035
0.0169762
0.0120248
0.0122315
0.0058742
0.00949298
0.00551269
0.00365138
0.00949394
0.00600863
0.0112914
0.00744174
0.0102637
0.00595026
0.00607502
0.00224734
0.00786699
0.000652607
-0.00073518
0.00406839
0.00419156
0.00446432
0.0131599
0.0136407
0.0111451
0.0095729
0.0104697
0.00661589
0.00634248
0.0181941
0.00843012
0.00616149
0.00620571
0.0048499
0.0158584
0.0189962
0.0258141
0.00725786
0.00438077
0.0158621
0.0019394
0.0170537
0.0134753
0.0143235
0.0119448
0.00688788
0.0133363
0.00915184
0.0284811
0.0184628
0.00534641
-0.00227238
0.0114431
-0.00125602
0.0133283
0.0139056
0.0278737
0.0289934
0.0316447
-0.00796041
-0.111145
0.00637769
-0.00444226
0.0773683
0.083734
-0.120488
-0.0108897
0.0282472
0.0308414
-0.00518471
0.0823684
0.0472543
-0.0222425
-0.00175423
-0.00339439
-0.0217702
-0.000333625
0.00692349
0.000430663
-0.0177904
-0.00557234
-0.00104499
0.00879529
-0.00881678
0.00461844
0.00405422
0.00480067
0.00571337
0.0637419
0.0189038
0.0054251
0.00749953
0.0102674
0.00453814
0.00275027
0.0270514
0.0158051
0.077818
-0.0586376
0.13674
0.0102895
0.00781534
0.00781256
0.00715092
0.00429655
0.00479379
-0.000661496
0.00352028
0.00975204
0.019184
0.00916356
0.00788738
0.00936756
0.00523404
0.0106267
0.0115147
0.00873014
0.00411702
0.0093537
0.0099968
0.00714306
0.013622
0.0136617
-0.00537301
0.00533995
0.00242902
0.00228212
0.0154041
0.00125552
0.00805007
-0.000804947
0.0102839
-0.00423191
0.0108376
0.0101261
-0.00390353
0.0027644
0.00453479
0.00462548
0.0098832
0.00679882
0.0103951
0.00703218
0.00383361
0.0141829
0.0155305
0.0168737
0.00801669
0.00112908
0.00320782
0.00514061
-0.00107196
0.00542312
0.00945856
0.00795532
0.00724484
0.0045413
0.0116787
0.0119708
0.0198117
0.00900151
0.00894568
0.00470738
0.00384384
0.00390231
0.00243253
0.0114478
0.00763929
0.00526355
0.00589939
0.00222137
0.00147553
0.0752208
-0.0525191
0.0795421
0.0061317
0.0091219
0.00458755
0.0293492
0.0844243
0.00679064
0.00716327
0.00409503
0.00485944
0.00757256
0.0333566
0.00638931
0.0110397
0.00248885
0.00422784
0.00135342
0.00699152
0.0115047
-0.00495806
0.0777398
0.0340284
-0.0581291
0.0439193
0.0384953
-0.0331584
0.0871013
-0.00553151
0.00356005
0.00672758
-0.00224381
-0.00620273
0.00428619
0.00234532
-0.000786537
0.00244184
0.00240844
0.032301
0.000408249
0.051112
0.0222517
-0.0100479
0.00470628
-0.00462481
0.00213461
0.0118884
0.00836615
0.00558944
0.0133409
0.0053512
SCALARS CoVolArea double 1
LOOKUP_TABLE default
2422.93
2397.74
1663.35
1785.82
1492.96
1626.54
2532.99
1810.79
2115.65
1413.14
2173.44
1308.55
6197.33
2323.94
1748.21
1653.09
3064.72
3350.7
3641.4
2418.05
893.357
3210.51
2318.16
5837.46
2808.8
1778.88
2511.44
2877.2
1489.24
1401.68
685.421
1445.07
2598.91
2966.93
2036.71
2247.16
4949.22
639.665
387.871
1897.38
2402.69
2354.42
2173.3
2080.56
949.109
1492.24
2554.29
1907.91
1962.83
3001.72
1903.36
1827.13
1545.71
1872.07
3583.89
1407.31
1488.02
928.644
2636.79
3585.84
3514.33
2671.98
2161.33
2526.47
2101.49
1755.67
2146.96
1861.19
3546.91
784.675
1774.31
1625.11
1843.54
2413.69
822.442
5031.9
2541.12
2243.52
2441.91
2159.96
2833.93
1595.28
2164.87
1320.36
1592.91
950.189
2697.24
2895
3510.37
3268.58
1334.03
2195.32
2380.26
2065.67
2681.11
2189
1568.81
2056.42
4714.27
2854.57
608.834
2511.38
1615.41
1381.79
12712.1
4151.79
1756.25
1498.79
1365.7
1395.82
1749.49
729.666
2003.28
2530.4
2198.63
2513.96
2340.71
2013.85
2255.12
2046.33
1177.75
1429.11
1325.32
2177.33
1696.57
1255.8
1446.18
2290.62
5841.65
977.076
774.195
6735.47
2923.58
8474.93
3204.34
1611.85
1912.83
906.078
656.676
1790.87
1953.72
2545.16
1523.37
2073.19
2069.83
2644.2
2821.56
3329.2
2209.62
1969.39
2549.52
2252.6
2334.48
480.712
1706.87
2126.24
5013
1737.02
2931.71
5364.7
1089.05
1678.7
2688.86
1211.89
1341.15
3232.12
1415.57
3785.29
1055.66
1038.49
1776.74
1539.88
1569.94
1641.26
2246.78
1458.02
1517.82
3717.27
1838.91
3474.69
2434.25
2296.22
1571.83
2063.58
2014.58
1692.18
2341.17
2897.91
3160.77
3729
3779.51
3352.22
1185.17
2359.11
1617.54
872.476
1861.08
1223.75
2952.72
2348.91
2307.36
2331.32
2224.96
1665.68
2352.18
2739.74
2539.36
1268.13
1576.36
2680.61
1115.84
1575.66
1010.88
870.013
1339.41
3364.05
2916.87
2996.68
3279.14
3832.41
2674.33
1837.01
3804.72
3370.44
3111.89
3468.63
2886.38
3555.48
3456.56
3923.69
1620.27
2516.45
2106.86
2174.92
2043.8
2650.29
2286.28
2443.94
2535.58
2237.86
2819.27
3379.25
3193.47
3098.4
1962.59
3972.74
3929.62
1571.88
685.144
481.346
1197.79
2155.02
2276.59
3858.8
3083.57
1992.54
2667.79
3793.82
1768.04
1336.59
2195.64
1794.54
1190.35
746.408
1642.15
1039.35
2217.22
3395.67
2938.26
2263.71
3520.2
881.041
1907.24
2893.06
5287.78
2405.74
1146.6
2544.84
1121.1
2559.73
291.208
533.619
2463.61
1820.47
5638.05
3782.66
3638.57
5026.07
5504.44
953.74
2821.39
2838.87
1277.55
2156.28
1766.95
1016.34
4981.84
2122.47
4101.2
1638.37
2355.64
2946.39
2949.06
2573.49
2052.12
2091.69
1584.31
1339.21
1338.1
3122.95
1411.97
2809.49
1422.12
1359.08
2069.08
3191.64
3293.71
3466.48
1020.62
1093.49
2052.19
1227.86
981.376
902.576
1525.19
1929.8
1853.75
4248.24
2575.34
3058.88
1634.28
2123.19
2304.13
2334.4
1791.1
2738
3125.17
2955.89
1327.95
1829.75
3534.92
3003.43
4473.92
3002.33
1800.74
1929.7
2707.14
1899.86
2687.2
2108.85
2593.49
2622.15
2312.72
3059.09
2255.1
2367.07
2680.18
2828.42
2117.69
1721.45
1838.19
2114.44
1689.76
2345.24
1986.39
1670.22
2315.52
2578.18
2442.88
2014.46
2644.73
2775.72
3679.27
2814.49
2583.92
3284.35
2743.68
1619.5
1169.02
1956.49
778.696
932.742
769.257
2133
3669.11
8210.62
10114.7
984.294
1532.63
323.644
4184.92
5564.6
1784.86
5445.32
3638.47
3789.03
2254.01
2085.59
3329.76
2961.56
1504.93
3147.42
3579.01
2866.43
1781.41
1065.64
594.423
674.934
1751.5
2621.13
1840.84
1130.15
1542.88
1971.78
1124.21
1264.89
651.84
1258.91
1563.65
2869.97
2076.39
3092.22
2034.51
2306.72
2382.81
2748.76
2273.05
2069.08
1477.83
2021.57
2044.31
1763.54
2455.59
1933.21
2473.68
2728.84
3225.07
2306.06
2363.87
2655.89
1891.92
1935.27
1700.56
2303.45
2126.08
2343.82
1426.94
1397.99
1713.22
2956.26
2506.42
2720.99
2207.15
1886.68
1459.47
1635.52
2512.7
1723.81
2809.73
1817.19
2004.83
2014.68
2105.8
2355.43
2143.04
2052.2
1715.19
2096.38
2629.9
2918.02
1723.8
2908.26
1674.71
1553.36
1517.05
1274.19
1224.31
1771.02
865.826
1863.5
9401.09
1882.47
375.969
629.715
1548.88
1439.78
641.654
2068.31
1223.55
428.469
2586.69
9960.01
3699.6
6804.91
3761.32
2986.8
4203.36
924.125
1275
4323.41
3258.59
12593.4
8880.58
8741.3
2036.21
2034.56
722.324
1297.73
1828.12
1827.54
1797.23
3211.41
1161
1155.7
466.128
590.403
535.478
307.507
2401.33
2176.27
2421.44
2027.11
2007.38
2119.68
2622.79
2189.86
1982.36
1378.77
1728.08
1995.85
1753.45
2269.06
1598.76
1558.94
1871.07
2377.81
2097.7
2480.79
1903.92
1855.67
1675.5
2660.13
1654.87
2046.39
2194.53
1644.35
3105.37
1978.78
3107.92
2411.91
3338.33
2249.96
2070.27
3544.06
1806.21
2676.67
2343.69
1465.71
1899.37
1293.59
2146.95
3665.86
1105.57
1581.44
966.72
1479.11
2277.57
4124.11
3004.59
3407.22
2606.97
2275.21
2165.09
2460.64
2851.63
1992.7
1739.17
1590.9
2268.13
2510.36
2596.47
2788.69
2421.93
2450
2233.01
2815.24
2616.13
3008.89
1615.96
349.044
838.573
534.69
819.97
1996.68
2051.26
2124.58
1291.56
614.378
2527.56
1963.8
2350.69
2169.37
2239.25
1257.26
2173.53
1696.98
2351.76
3264.79
3197.19
2511.5
3044.79
6377.96
1628.72
3653.63
742.19
1570.92
1073.05
1774.98
550.84
711.536
2232.4
4960.53
4784.61
6339.37
2627.02
4370.03
4846.32
3799.35
5191.6
972.133
569.837
279.092
900.444
2121.53
2350.97
4927.42
2812.23
1476.87
873.046
3020.97
1250.15
3160.14
SCALARS SignedDistance double 1
LOOKUP_TABLE default
70.0395
81.9812
73.7711
68.7094
62.8945
78.4173
192.958
54.428
67.2305
74.9684
65.5484
70.5887
79.1385
73.9128
80.0562
79.6186
70.0778
66.5673
63.6371
83.6176
67.4644
75.0352
74.4082
79.9467
68.8861
68.6289
67.8419
65.8789
96.709
91.3119
71.3744
93.3562
69.8588
71.3801
56.0171
53.6715
121.095
87.17
86.2631
77.9853
71.2637
76.2453
84.6287
82.0507
65.3665
69.3044
73.4598
74.409
73.6265
75.2985
72.992
70.9966
68.7509
72.3294
77.3843
68.4219
70.7781
68.3403
69.0597
76.3138
82.2642
68.9837
55.8636
61.7502
56.1562
71.811
69.4996
60.7693
67.2615
70.1268
53.1144
62.3472
79.0962
75.386
73.9877
83.3446
74.9175
84.5773
88.1374
75.7194
75.9268
76.933
74.6938
72.1592
67.5816
69.0326
67.8688
67.9787
65.7587
65.7685
66.2412
72.0389
69.3422
64.5349
75.4466
61.6091
64.5483
66.7145
74.8136
68.1444
77.1484
76.1967
88.4092
109.815
158.275
74.1968
62.9699
72.4443
71.0433
65.3307
54.2078
74.8855
66.2575
64.3013
65.419
70.1844
69.6251
73.7917
51.8454
63.3166
69.1203
79.4672
93.7661
48.7142
66.8786
94.1529
82.5815
67.2921
88.7246
90.5553
91.4199
100.887
90.2409
194.113
100.942
68.1013
67.3507
85.6486
86.6098
66.0714
66.3446
68.468
68.8065
81.542
72.6011
77.174
77.8522
67.0877
69.8852
71.3731
60.5484
57.6961
64.4543
93.4552
69.9679
64.684
74.1624
124.915
72.3829
92.4349
75.9785
81.137
75.5976
67.5135
63.1398
83.6222
75.7607
85.8336
69.3143
70.2149
77.7501
70.8525
72.2491
72.2306
71.8194
71.2443
70.1757
76.1222
73.3965
76.9828
85.842
85.3702
75.0669
71.6099
71.6349
71.0449
74.4957
80.7662
78.0202
78.1171
79.212
74.9549
62.6633
64.2311
72.2772
68.3238
71.9738
68.3673
69.6577
85.7956
73.6819
80.1115
72.6399
72.9193
72.5198
79.1855
67.6501
64.175
67.9603
69.9879
67.7905
70.8729
70.9593
66.9875
71.2556
74.8275
77.3917
71.0064
64.4608
73.846
73.841
66.3674
66.6179
64.4333
62.1451
83.1912
67.0796
62.9021
66.5276
74.7359
64.519
73.7634
53.4468
55.9841
53.0135
60.588
58.6951
57.8043
59.3386
59.8301
61.1107
69.5375
63.3373
64.3544
86.8263
76.9332
77.7287
89.693
66.0977
71.8671
67.3354
57.6983
53.3267
72.9348
56.1589
73.7017
55.4908
60.7092
61.7308
58.8846
62.7985
48.3746
60.1006
74.3783
70.5533
62.1211
68.3912
80.2011
68.0242
55.4982
82.5965
69.0818
72.9263
84.2236
84.8489
69.0418
73.3016
76.0181
73.3675
80.3058
75.839
75.1605
74.9011
74.4311
75.861
75.6505
76.8077
78.5686
81.8063
80.0663
81.0946
83.8578
72.9264
87.9293
80.9563
74.3031
83.6126
81.2773
83.6941
76.2528
85.4567
77.7306
81.5191
76.6213
73.1308
73.9255
75.6244
74.4503
73.3752
78.6993
74.6997
79.2795
72.7044
73.3235
74.0887
76.9576
80.1489
81.2153
70.6474
71.9804
73.3353
69.7091
67.1245
67.3982
66.3613
69.3673
69.6861
70.6239
67.9903
71.1026
68.5766
71.3986
63.611
64.3305
63.206
73.3807
66.1378
73.2645
68.3361
69.1897
69.7342
73.9164
75.1319
71.3134
72.3743
70.5134
73.6901
74.7654
68.7509
67.9314
73.0112
63.1538
68.5034
72.7109
68.2651
72.3122
71.1336
75.6128
63.5004
64.6976
66.9975
65.5055
63.9275
64.8336
65.2162
64.539
66.2231
73.8044
71.8205
75.2007
67.4771
66.383
81.1422
71.527
69.129
68.8799
73.5124
69.6873
76.5178
87.4772
76.228
78.3931
74.6814
73.3016
115.02
104.628
178.77
89.5008
88.3101
90.4226
100.726
131.787
126.656
93.3504
125.42
94.6431
55.1301
58.0727
71.3239
57.0686
79.7615
59.7523
87.4213
83.1142
81.6539
70.1991
72.2446
68.5653
82.9239
85.1356
64.9045
63.1222
67.8482
66.8551
61.2598
69.7265
76.6117
58.1201
56.9406
76.8901
52.7016
61.782
65.8128
65.0141
68.0712
68.5926
64.2513
67.6876
66.8999
62.5005
64.8647
72.6374
72.4352
76.6492
68.7324
73.3123
73.8761
70.7046
71.2974
69.475
57.433
55.2836
63.1776
57.8428
53.7067
52.7698
70.8742
65.8098
70.5274
66.098
65.5474
64.202
82.2878
88.0271
71.345
72.34
93.0917
86.1843
90.8929
57.2188
48.5
66.0928
47.559
51.0562
48.9041
61.8685
89.4004
85.6085
70.2546
95.6786
90.0509
99.5009
64.007
77.4172
76.6856
80.187
83.2519
81.1718
93.6021
79.6181
103.526
100.489
89.6244
89.1256
88.6267
87.928
88.8647
91.7725
93.4515
90.4747
88.2687
117.504
120.533
184.064
145.475
89.1485
110.758
85.8055
88.2924
125.202
98.4533
183.013
138.071
122.02
70.2877
68.6114
87.8297
81.0416
68.6129
67.2734
65.9026
96.4025
89.4951
83.425
85.9141
87.8609
85.2443
87.5449
65.3805
67.4433
68.0835
68.5503
70.2386
73.1917
71.546
74.6267
67.4627
80.7074
70.3568
66.8773
66.6807
71.1401
66.7943
65.8493
68.6891
73.3105
70.3969
72.5022
72.9877
79.0087
70.1037
77.7603
77.089
77.0626
76.5588
73.2019
80.9449
77.1209
79.7734
76.4384
78.8937
76.5661
68.5337
70.3962
71.0777
67.2269
77.4833
71.1247
72.3043
70.9578
70.0532
71.5717
71.3724
68.0804
68.8831
72.419
75.5342
75.1509
75.2404
75.8534
64.1006
59.6885
61.1821
63.7874
65.6375
54.304
68.3829
63.8315
51.8018
53.8397
67.2092
67.8479
69.823
73.3445
66.4408
59.7327
64.0394
62.5425
98.398
88.6776
96.8347
87.7676
90.1141
73.2653
64.3678
67.0882
87.2538
89.5486
66.2804
69.0889
68.2779
68.157
66.0501
87.2017
66.2434
76.5911
68.0025
70.4883
73.8024
68.388
85.7748
92.1146
142.125
135.782
88.2402
91.2226
76.9276
77.2979
73.0083
75.8003
86.6641
91.691
125.996
87.2067
79.4294
82.5408
80.8528
79.944
80.6414
76.1878
74.8675
76.8271
74.9218
82.4111
87.06
86.2052
86.0152
76.5523
72.4783
81.5451
80.6664
84.2199
