# vtk DataFile Version 4.2
vtk output
ASCII
DATASET POLYDATA
POINTS 642 double
-162.348 252.435 91.8931
146.85 237.498 77.8553
-186.676 -306.906 126.795
169.83 -302.265 130.927
-5.20926 -292.114 421.912
-7.61565 72.9581 365.366
1.59291 -160.08 -97.8711
-3.223 179.8 -240.368
281.428 33.7561 -88.1365
221.853 -55.0257 268.12
-300.102 37.6659 -90.904
-246.737 -59.7589 269.686
-199.483 123.093 157.538
-142.075 20.613 345.71
-99.628 222.367 198.67
82.6883 222.064 197.341
0.935326 285.88 69.5895
102.745 239.82 -110.692
-104.464 248.302 -114.354
-187.332 111.94 -161.882
-332.324 163.601 -71.456
-299.784 -41.6726 48.6622
135.359 17.042 336.62
191.417 99.9189 158.266
-139.866 -218.022 376.12
-3.93554 -42.3158 425.727
-255.191 -197.67 3.51713
-250.164 -221.502 205.376
-4.88267 81.3413 -226.922
-178.629 -120.719 -143.355
305.979 158.031 -72.2135
185.396 95.4102 -174.782
230.542 -216.057 199.399
122.796 -211.941 368.769
89.7887 -363.212 321.915
-97.7435 -367.149 326.21
-1.34508 -327.002 226.876
-186.607 -251.496 -33.8998
173.076 -252.272 -34.0252
164.312 -121.47 -131.683
240.988 -191.814 -1.66608
286.716 -36.3531 38.8792
-187.654 216.097 111.544
-150.271 212.171 178.225
-133.043 262.926 151.274
-204.652 -11.5689 316.184
-193.63 54.3362 275.682
-236.776 11.0056 240.563
-53.5207 166.517 284.251
-104.341 136.891 284.285
-53.5148 52.2413 378.998
-83.7163 275.529 147.318
-88.6936 287.598 87.4376
39.8305 166.342 282.783
-1.53197 214.416 221.557
73.7381 287.89 82.3977
68.5949 275.694 148.477
113.561 256.899 149.211
-59.2339 285.187 -12.5655
-171.541 233.82 -30.05
160.208 222.991 -25.3921
50.502 285.691 -6.88729
-57.93 228.597 -191.356
-4.63063 267.764 -124.884
47.4051 226.16 -190.036
-273.699 209.094 -80.3115
-286.776 194.97 -64.998
-89.7001 148.663 -241.083
-169.93 191.467 -157.864
-342.228 129.382 -83.3388
-305 148.863 -134.456
-283.838 98.1686 -140.736
-306.064 148.559 -30.3892
-308.649 28.7601 -38.1964
-335.61 128.769 -71.884
-265.515 63.0733 66.2493
-273.468 -76.5665 185.282
124.619 201.968 175.827
163.18 204.434 86.905
39.978 51.8504 370.468
93.7592 130.938 280.006
216.183 13.9385 239.145
181.763 49.8912 269.777
189.676 -16.3905 310.587
-54.7969 1.10412 413.408
-8.49017 18.8763 412.811
-210.622 -111.069 320.488
-161.324 -51.7302 364.134
-2.61482 -193.526 421.69
-72.2196 -139.081 417.117
-88.1599 -253.741 418.495
-286.875 -141.421 147.56
-260.29 -137.914 239.068
-286.487 -97.675 -46.5836
-292.244 -110.923 36.1694
-228.771 -277.493 165.468
-275.654 -217.941 109.355
-232.966 -256.276 70.2433
-194.104 12.6623 -158.083
-244.39 -55.5274 -114.538
-5.13806 131.733 -256.62
-72.1201 129.029 -238.588
-182.606 -139.142 -120.424
-114.914 -34.8405 -185.485
12.7208 4.98447 -145.328
160.288 182.743 -148.28
81.8284 145.745 -238.109
262.953 190.247 -59.7949
251.847 207.014 -80.9716
268.225 93.4748 -134.585
284.055 144.626 -127.96
317.959 115.074 -82.7137
210.192 -268.883 166.364
161.131 -296.568 274.65
119.876 -338.632 252.175
195.004 -100.652 315.615
187.896 -212.888 303.424
240.699 -137.517 230.062
40.6577 -338.235 393.806
114.78 -287.156 374.993
73.4824 -254.078 415.324
46.7126 -373.36 293.554
106.567 -325.523 166.694
-50.9427 -342.536 399.23
-5.68667 -396.906 343.643
-123.002 -321.767 179.467
-58.0998 -374.527 300.413
-130.848 -344.435 256.218
153.933 -278.91 65.9185
162.204 -284.97 31.7804
-176.314 -286.934 37.9457
-151.308 -269.952 65.4739
147.322 -198.854 -71.9828
2.83113 -203.766 -86.2258
-148.791 -195.73 -69.8167
189.995 -239.285 -26.9502
218.48 -249.123 63.776
158.61 -143.065 -126.958
163.587 -198.62 -92.9436
274.53 -94.5879 -43.8341
217.14 -160.412 -78.7862
239.471 -54.8849 -107.845
253.965 -214.943 106.89
293.225 18.6931 -29.6523
282.264 -101.417 18.2874
258.324 -141.601 154.092
250.385 -76.1616 178.656
59.384 -138.479 414.995
151.497 -53.4917 358.838
41.1179 -0.539302 404.973
-178.776 -301.989 281.995
-131.163 -289.766 380.787
-207.962 -215.746 314.626
-178.424 -199.104 -95.9102
-199.277 -244.225 -29.0899
-227.284 -162.225 -82.6877
190.691 20.3035 -147.461
96.0197 -38.6736 -186.995
64.0625 134.997 -238.985
247.687 47.1851 60.9532
309.097 108.971 -72.342
278.999 146.081 -31.0216
-179.062 234.803 103.073
-160.534 244.894 141.341
-145.466 265.071 129.03
-163.735 181.3 168.843
-167.785 223.662 151.544
-188.4 192.414 116.294
-120.216 254.16 170.57
-146.445 240.688 164.607
-129.395 223.702 189.834
-227.123 -34.7326 294.048
-224.016 0.078205 280.067
-244.237 -23.4238 256.834
-177.257 36.8099 311.233
-200.834 21.2936 299.435
-180.4 5.38552 330.663
-226.204 48.6308 212.985
-216.387 34.4355 261.596
-198.374 80.3513 229.579
-26.1563 118.768 315.567
-47.9308 102.319 321.976
-32.463 62.4927 376.717
-95.9593 185.082 249.933
-77.5817 158.432 285.32
-74.0056 191.335 255.045
-90.8459 36.9723 365.978
-83.5361 86.8987 320.532
-125.76 64.7506 319.784
-163.106 131.507 221.2
-147.348 91.818 277.948
-126.196 173.666 233.246
-119.539 279.865 129.331
-126.542 277.872 96.3889
-98.4855 260.535 168.502
-108.088 272.964 151.356
-66.5262 292.463 74.8222
-91.7517 285.01 123.001
-54.3429 282.257 114.511
14.9693 120.232 315.322
-4.39717 165.467 284.904
52.8085 217.648 211.001
24.3431 189.546 260.778
59.2424 189.744 250.881
-34.4141 188.584 261.787
-65.3012 217.029 216.657
105.205 272.441 88.2653
100.287 275.487 126.88
125.984 257.02 126.448
48.2593 282.921 115.222
74.8665 284.669 121.077
57.6312 293.12 75.0788
100.411 250.182 168.615
88.9388 270.465 151.602
80.3574 260.065 168.101
-46.1727 251.782 171.798
41.5748 252.653 170.702
1.33539 270.616 145.918
-108.691 284.022 42.479
-159.001 241.567 26.6502
-42.3695 290.85 34.9143
-75.8288 296.584 40.5058
-135.936 246.831 -66.3828
-93.352 279.741 -12.5604
-77.7883 277.877 -67.7964
150.008 229.46 18.201
96.6939 281.359 38.7832
68.5763 272.239 -63.6822
86.5886 276.551 -6.46473
137.859 232.504 -71.4762
66.0648 295.71 42.3173
36.3969 294.517 35.7139
-30.1915 208.335 -219.758
-3.69201 229.945 -195.902
22.1764 207.71 -219.65
-52.6751 262.95 -122.197
-30.7014 249.945 -160.673
-82.3182 243.089 -157.928
71.6217 238.382 -154.712
21.4069 248.593 -160.204
42.1044 260.272 -122.027
-3.42045 285.349 -14.8779
20.6872 281.234 -74.5497
-31.4944 281.918 -75.1949
-246.541 218.504 -61.4292
-208.996 203.29 -16.9583
-202.409 202.318 -74.3172
-244.017 219.408 -60.6836
-311.071 182.968 -71.444
-280.609 204.588 -75.37
-305.537 194.036 -78.1215
-45.6483 165.164 -243.043
-74.0351 194.539 -220.573
-186.304 152.077 -171.249
-116.923 173.012 -212.312
-125.433 138.47 -224.036
-101.491 214.716 -187.65
-139.798 220.017 -147.875
-328.49 98.8921 -90.9569
-317.896 116.296 -115.429
-299.099 73.3429 -118.638
-331.405 162.295 -96.3063
-330.833 135.83 -109.916
-347.12 141.359 -79.6006
-265.144 110.253 -151.035
-296.129 127.094 -138.125
-274.143 133.292 -149.466
-239.849 192.761 -123.877
-260.905 170.31 -140.718
-290.28 188.215 -111.08
-225.76 176.463 16.1384
-322.843 159.276 -57.0868
-303.29 169.566 -44.1784
-237.738 156.874 21.8976
-246.703 127.783 35.7459
-310.256 34.8631 -63.6968
-333.997 105.601 -72.7777
-313.566 69.2124 -37.8996
-328.622 100.433 -66.2428
-304.069 2.64862 4.7159
-341.204 133.277 -77.769
-342.472 139.466 -76.4838
-255.671 -25.4837 220.426
-260.319 -64.6496 232.661
-246.626 71.2189 115.283
-248.825 18.2 187.741
-284.412 -68.302 123.259
-265.075 -20.3623 155.413
-285.744 9.21617 43.4967
-323.952 136.124 -46.382
-309.189 110.612 -27.6028
-295.789 116.767 -12.7859
137.678 238.407 137.379
158.167 220.429 80.9813
106.706 218.022 187.117
124.714 235.999 160.264
173.586 168.049 102.313
142.773 218.341 147.293
144.178 159.847 174.202
16.0017 63.4681 372.197
35.2159 105.609 318.585
117.263 63.1359 312.57
73.9775 87.7432 313.583
83.4171 35.9328 353.424
64.5432 155.23 281.645
81.6982 180.524 246.515
220.191 -18.965 255.452
206.225 -0.427852 275.32
207.406 -33.0077 292.407
187.702 68.1122 230.999
201.337 33.245 256.377
207.429 44.7242 215.044
167.344 -0.0862713 324.393
186.843 18.6558 292.017
164.738 33.5079 303.697
111.732 163.117 233.59
136.585 85.7444 274.629
147.943 115.267 227.135
-32.7669 36.3591 401.038
-8.79974 43.5133 395.438
-90.529 12.0525 383.178
-55.6235 24.6364 400.567
-8.47264 -5.3094 423.141
-34.126 8.96489 417.412
-33.3427 -14.1607 424.658
-235.245 -76.9555 294.121
-211.686 -52.7249 319.203
-152.482 -123.816 364.798
-188.139 -77.7461 345.005
-176.095 -164.325 340.951
-185.546 -31.0536 342.208
-154.905 -13.7443 356.569
-2.61099 -253.964 422.245
-54.8418 -236.078 422.958
-49.2291 -273.998 422.155
-34.3125 -81.7218 416.339
-47.7381 -164.466 420.793
-1.29085 -108.282 426.049
-108.448 -245.332 404.473
-80.2425 -222.299 414.577
-97.189 -196.023 398.161
-102.985 -25.6246 384.871
-105.134 -90.4866 390.892
-62.3769 -46.6567 415.23
-272.323 -104.039 210.392
-256.649 -95.5957 254.601
-289.46 -101.345 114.055
-285.66 -108.566 168.361
-254.849 -180.529 225.691
-280.11 -135.87 192.471
-271.722 -177.789 166.553
-294.843 -44.1526 -66.8814
-302.662 -51.3962 -37.4861
-275.577 -154.838 22.5225
-295.642 -101.858 -16.0519
-266.828 -142.866 -25.8496
-303.834 -63.7038 -3.25138
-301.992 -78.8632 45.8372
-210.029 -294.296 146.577
-237.255 -269.172 117.044
-212.143 -284.227 100.229
-269.153 -222.334 143.433
-257.129 -247.224 131.16
-241.28 -252.377 184.077
-247.382 -228.192 35.8612
-258.132 -239.895 92.0007
-268.077 -212.017 66.317
-289.67 -142.594 94.5101
-284.893 -179.104 87.0175
-288.773 -186.736 121.846
-265.026 33.9313 -127.036
-274.617 -10.4266 -102.467
-203.198 86.1872 -157.111
-250.741 64.557 -148.376
-205.373 -93.5394 -130.015
-225.42 -19.7663 -138.785
-179.652 -61.7711 -157.21
-3.96404 139.956 -261.144
-40.8901 135.308 -254.507
-31.4337 98.6807 -235.801
-34.1753 130.283 -250.348
-5.8082 118.462 -247.351
-83.1635 135.559 -242.215
-122.543 137.818 -223.011
-124.256 -154.065 -101.726
-132.03 -91.7044 -128.206
3.77365 -123.139 -93.4993
-159.358 -81.9673 -166.955
-165.745 -90.1507 -165.563
-183.636 -134.316 -138.654
14.6408 77.7577 -230.041
-96.6191 -19.2789 -193.033
-46.9327 38.4002 -208.875
-122.652 79.0375 -189.181
-75.6775 40.932 -204.127
[...]
POINT_DATA 642
SCALARS Mean_Curvature double 1
LOOKUP_TABLE default
0.0121297
0.0163902
0.0203646
0.0104982
0.00663704
0.00343144
0.0156741
0.00988766
0.00271979
0.00897499
0.00441052
0.00968746
-0.00212839
0.00406042
-0.00767375
0.00342542
-0.00455505
0.00362303
0.00146727
-0.0221427
0.0545974
0.0173292
0.00520805
0.000671744
0.0012649
0.0142811
0.00743826
0.00602338
-0.00797428
-0.0386685
0.0586395
-0.0628086
0.00435335
0.000847567
0.0217201
0.0153653
-0.0053669
0.0652082
-0.139047
0.00528378
0.00960521
0.0165541
0.0211433
0.0107677
0.0190133
0.0109216
0.00863318
0.00578035
0.0100635
0.00763465
0.0090785
0.0139782
0.00250623
0.0130951
-0.00033492
0.00557161
0.0200564
0.0182446
0.00227753
-0.00611361
-0.00595881
0.00416022
0.00964348
0.00854009
0.0101684
0.0204424
0.00172803
0.0231566
0.0038153
0.0335157
0.0277095
0.0114477
0.0150755
-0.00271174
-0.00777971
-0.00301432
0.000604625
0.00106037
-0.00185772
0.00487235
0.00752902
0.0092384
0.00933792
0.0100085
0.014988
0.0129213
0.00565575
0.0093286
0.000781058
0.0162366
0.0202592
0.00618444
0.00637752
0.0112981
7.83003e-05
0.0113793
0.0140978
0.00307292
8.25716e-05
0.00444888
0.0313489
-0.00577296
-0.0302631
-0.0325538
-0.0124035
0.0014421
0.0254663
0.00737045
0.0313512
0.00794889
0.01972
0.0809764
0.00823388
0.00580769
0.00603198
0.00815821
0.011124
0.00860858
0.00881227
0.0141243
0.0244263
0.00569786
-0.0506562
0.0140627
0.0369652
-0.0554183
-0.00879325
0.00675177
-0.0170458
-0.00748615
-0.00303769
-0.0103611
-0.0107086
0.0287057
-0.00868356
0.00629817
0.00572494
0.0916058
0.0711275
0.0130504
0.011044
0.0122166
0.0173788
-0.00314879
0.0178094
0.0024383
0.00261948
0.0127733
0.0125767
0.0111599
0.00840417
0.0135606
0.0164277
0.0489841
0.00753609
0.00821645
-0.00268622
0.0330905
-0.00579682
-0.00487201
-0.0134569
0.0106482
0.0114781
0.0182407
0.0183686
-0.00415737
0.0181489
-0.00408334
0.0193501
0.0179731
0.0156234
0.00685031
0.00758987
0.00875311
0.00830736
0.00997412
0.0100196
0.00295313
0.00787206
0.00410714
0.00324625
-0.00413746
0.0143716
0.0114077
0.013512
0.0147173
0.00258255
-0.00339331
0.00344548
0.000351252
-0.000923672
0.00384518
0.0233931
0.0087685
0.0123077
0.0223053
0.0109446
0.019561
0.00131022
0.00678469
0.00476925
0.000653037
0.00878348
0.0126778
0.00552891
0.00253642
0.00316031
0.0204094
0.01625
0.00230783
0.0253779
0.0155139
0.0173758
0.0234816
0.0191132
-0.00165716
-0.00127015
0.00749322
0.0095675
0.00191548
0.00158686
0.0217957
0.00789402
0.00474814
0.0111512
-0.00054886
0.012193
0.00674036
0.0050347
0.00257643
0.0216018
0.00841177
0.0112162
0.00844148
0.013458
0.00428517
0.00617405
0.0107266
0.00864621
0.00662357
0.00428096
-0.00111349
0.00833224
0.00702284
0.0249837
-0.014708
-0.0222852
0.056657
-0.0035676
0.0211701
0.0543464
0.00628833
0.0110938
0.010212
0.00682623
0.0611802
0.00933131
0.00980284
0.015366
0.00651659
0.0132564
0.0258941
0.0350072
0.0885519
0.0108974
0.0135771
0.0140824
0.0126052
0.0140526
0.0175845
5.43984e-05
0.0115186
0.0118953
-7.956e-05
-0.00543287
0.0120278
0.0590199
-0.00855839
0.0164476
0.0033168
0.0475627
0.0142079
0.00494411
0.00433994
0.00540338
0.00497097
0.00149016
-0.000772164
-0.0038803
0.0274203
0.00740864
0.00415462
0.0188683
0.00932264
0.01115
0.0192474
-0.00252019
0.0122422
-0.00382047
0.0125866
-0.00244385
0.00479817
-0.00343655
0.00196739
0.0100332
0.00842966
0.00683998
0.00847318
0.0107794
0.00596668
0.0120073
0.00472355
0.00851316
0.0100428
0.00764682
0.00530139
0.000601244
0.000441729
0.0179902
0.00983771
0.00780812
0.0131234
0.016296
0.0205133
0.0181208
0.0104943
0.00623374
0.00275614
0.00742251
-0.0034796
0.0108666
0.00751832
0.000420193
0.00787156
0.00558814
-0.00742229
0.00255181
0.0132586
0.00576667
0.0100362
-0.00565046
-0.00080935
-0.00148735
0.0122924
0.00548801
0.00856744
0.0022952
0.0114891
0.00301551
0.0125831
-0.00353516
0.012753
0.0109049
0.000457799
0.0144744
-0.000512573
0.00629975
0.0117992
0.00840515
0.0112722
0.00696024
0.00942903
0.0120757
0.00503119
0.00755897
0.0107458
0.00696794
0.00340606
0.00777717
0.0198802
0.000349087
0.00503439
0.00171174
0.0112857
0.000890616
0.00463425
0.00275248
0.0372117
0.0621081
0.00488857
-0.0156997
0.00200835
0.0848089
-0.0163814
0.00404507
-0.00848499
-0.00865262
-0.0595257
0.0565784
-0.214469
-0.0219675
0.0289593
-0.0213115
-0.00660699
0.00301535
0.00770242
0.00889492
0.00823253
0.00841469
0.00864233
-0.0240904
0.00271895
-0.00865354
-0.00669612
0.00823949
0.0625402
0.0211363
-0.0114106
0.040375
-0.0156209
0.0129221
0.0188211
0.00876553
0.0190649
0.0219768
0.017352
0.131345
0.0210841
0.0319728
0.0203813
0.0171416
0.0151411
0.00553498
0.00976023
0.00808139
0.00281245
0.0117868
0.00642465
0.00993221
0.00955778
0.0104957
0.00622673
0.00691017
0.000938355
0.00887719
-0.000216854
-0.00135503
0.00461846
0.00449578
0.00466303
0.0146933
0.0177746
0.0111417
0.0105579
0.0129292
0.00682271
0.00466404
0.0214608
0.00734487
0.00698849
0.00772789
0.00455753
0.017527
0.0107377
0.0332894
0.0125807
-0.00334722
0.0261103
0.00096338
0.0192298
0.0160139
0.0205333
0.0142485
0.00679541
0.0157396
0.013703
0.0220084
0.0250484
0.0108389
-0.00234186
0.00804459
0.00391846
0.0155309
0.0214928
0.0407112
0.0365039
0.0363148
-0.0126021
-0.0483012
-0.00251506
-0.00731994
0.0878579
0.104655
-0.163697
-0.0196968
0.0162948
-0.123077
-0.00840461
0.0885204
-0.0862121
0.0513717
-0.00360051
0.0149729
-0.020412
0.0195038
0.0129173
-0.0196956
-0.0199546
-0.00744273
-0.0185495
0.0157766
-0.0079418
0.00302863
0.00206179
0.00179272
0.00401019
0.209513
0.0476438
0.00585734
0.00686452
0.0114614
0.00506027
0.00198892
0.0509531
-0.0520648
-0.259108
0.0664722
-0.0384539
0.0134255
0.00854769
0.00922552
0.00784012
0.00408466
0.00526519
-0.00149606
0.00168444
0.0123008
0.0539435
0.0104021
0.00791796
0.0101059
0.00544935
0.0127581
0.0136831
0.0105548
0.00475789
0.0101995
0.0110869
0.00650619
0.0254946
0.0152297
-0.0082842
0.0044078
0.00273093
0.001362
0.0189013
0.00110488
0.00864281
-0.00109701
0.0121494
-0.00535303
0.0101123
0.011459
-0.00442657
0.0017867
0.00487888
0.00112831
0.0110715
0.00713302
0.0117936
0.00729851
0.00442697
0.016795
0.0178163
0.0207086
0.0086669
0.000411173
0.00308231
0.00524631
-0.00119636
0.00534221
0.0100472
0.00947094
0.00821702
0.00431384
0.0156131
0.0118692
0.0236242
0.0102103
0.00970854
0.00567523
0.00332662
0.00449473
0.000257065
0.0132789
0.0081355
0.0054322
0.00634196
-0.00665979
-0.179392
0.0388345
0.110402
-0.0419381
0.00534992
0.00967468
0.0037726
0.0690889
0.0195036
0.00715008
0.00508041
0.0030948
0.00509989
0.00839077
0.0934863
0.00671266
0.0127325
0.00247583
0.00134467
-0.000566724
0.0090101
-0.022005
-0.0108887
0.109344
0.0179664
-0.143757
-0.0720311
0.0710075
0.0677295
0.114493
-0.0255875
0.00271121
0.00842446
-0.00571423
-0.00898938
0.00370682
0.00254495
-0.000897933
0.00250639
0.00350233
-0.168368
-0.041682
-0.076309
-0.1595
-0.0222663
0.00467339
-0.00534722
0.00229006
0.0145319
0.0106574
0.00640382
0.0127536
0.00580478
SCALARS CoVolArea double 1
LOOKUP_TABLE default
2188.71
2113.72
1355.29
1602.26
1310.44
1465.86
1761.44
1565.94
1905.48
1270.82
1932.69
1141.13
6354.48
2140.47
1535.37
1404.29
2909.82
3167.31
3502.58
2211.6
534.761
2858.23
2150.88
5868.36
2717.87
1514.18
2310.03
2699.56
1386.89
1162.56
387.1
1479.67
2415.02
2870.19
1693.81
1890.07
5279.07
720.673
367.07
1538.53
2222.17
2064.85
1834.49
1857.43
710.263
1283.57
2341.61
1724.48
1748.74
2794.74
1739.83
1592.7
1284.98
1636.51
3516.31
1149.74
1242.59
691.196
2419.64
3471.71
3295.31
2413.06
1913.72
2282.24
1858.61
1494.82
2021.54
1419.78
3142.86
517.734
1395.36
1403.83
1653.38
2125.29
756.681
4921.19
2413.43
2061.24
2265.92
2024.17
2627.2
1411.65
1949.53
1118.91
1344.43
740.366
2513.03
2679.9
3343.34
3009.91
1089.94
1970.8
2168.9
1807.01
2453.63
1929.56
1305.95
1880.31
4608.86
2671.65
364.934
2513.64
1937.93
1235.18
13514.3
3860.6
1360.97
1396.28
1005.26
1200.98
1391.01
431.734
1749.99
2292.27
1918.59
2310.53
2097.97
1800.97
1972.42
1762.83
936.973
1188.03
1102.65
1883.27
1273.25
1245.28
1270.2
1968.76
6322.97
762.919
594.881
7121.78
3158.28
8633.78
3342.35
1249.33
1723.33
1047.35
412.581
1536.99
1724.71
2331.75
1263.66
1713.19
1811.55
2501.8
2706.2
3117.45
1956.47
1744.26
2295.1
1951.41
2065.72
280.487
1254.97
1909.72
5016.84
1202.37
2987.24
5331.73
1096.06
1515.31
2423.78
930.726
1073.56
3133.94
1214.68
3869.5
852.437
812.709
1521.01
1341.62
1371.59
1453.35
2044.31
1248.41
1309.65
3568.45
1643.77
3306.83
2246.65
2128.16
1364.19
1793.74
1792.56
1459.62
2202.01
2794.14
3022.94
3520.41
3595.75
3123.54
926.096
2115.36
1435.76
648.341
1671
993.399
2756.4
2134.72
2098.12
2153.66
2019.19
1428.16
2152.04
2597.1
2311.35
1005.6
1289.41
2472.31
861.052
1353.96
799.667
632.336
1123.89
3246.75
2780.87
2727.11
3047.38
3611.86
2511.57
1575.4
3741.78
3139.69
2863.26
3259.71
2672.68
3339.34
3252.51
3795.96
1344.03
2313.92
1862.3
1931.72
1797.31
2403.78
2067.3
2211.43
2315.94
2020.2
2588.72
3207.28
2934.77
2848.96
1768.34
3781.45
4037.87
1564.72
509.455
313.936
788.963
1790.98
2012.53
3459.13
2682.56
1516.16
2396.99
3644.59
1467.1
1117.07
1956.89
1274.69
826.268
392.942
1493.09
806.903
1945.09
3119.15
2482.6
1790.77
3377.84
655.645
1716.48
2716.91
5408.86
2060.34
809.101
2338.48
845.293
2162.42
132.917
333.231
2311.58
1648.69
5457.89
3577.67
3514.13
5021.95
5603.64
757.623
2803.75
2577.23
1022.9
1864.03
1533.57
811.862
5154.95
1986.89
4038
1432.04
2182.51
2790.83
2860.6
2464.45
1847.22
1834.9
1403.05
1137.54
1143.25
2941.87
1203.39
2611.99
1227.26
1152.17
1863.2
2986.23
3084.25
3268.68
807.04
897.842
1827.41
1015.07
747.868
678.858
1255.93
1701.61
1632.46
4133.04
2358.71
2930.07
1405.98
1897.82
2154.14
2150.24
1568.53
2478.48
2884.2
2717.2
1176.08
1613.29
3448.74
2770.81
4297.3
2729.05
1600.19
1714.89
2478.92
1704.56
2519.92
1894.18
2389.14
2313.57
2015.92
2881.5
2020.97
2185.46
2459.15
2555.26
1860.86
1494.33
1599.41
1867.91
1439.53
2111.44
1776.31
1449.69
2087.23
2331.59
2181.91
1732.12
2416.07
2526.97
3735.7
2625.08
2385.43
3084.89
2564.63
1178.94
740.297
1911.66
635.675
856.843
434.52
2054.84
3475.79
8729.93
10524.6
919.077
1610.32
350.305
4586.24
5534.37
1605.77
5595.71
3651.01
3746.2
1989.73
1713.85
3060.92
2717.52
1439.67
2973.89
3642.75
2694.32
1529.01
662.618
378.938
506.901
1461.86
2392.29
1606.48
886.058
1285.52
1791.79
868.523
1011.36
312.96
881.926
1091.76
2489.96
1600.15
2721.78
1814.67
2034.31
2090.42
2533.27
2009.37
1841.74
1224.34
1767.28
1773.96
1559.9
2260.04
1766.87
2273.99
2562.29
3066.1
2101.03
2168.9
2450.45
1594.76
1599.74
1447.8
2011.27
1823.72
2057.35
1302.75
1118.04
1484.99
2693.4
2214.05
2451.56
1915.86
1726.68
1094.32
1322.52
2398.92
1415.36
2855.42
1527.71
1704.41
1572.92
1774.24
2076.05
1826.22
1626.15
1392.41
1687.83
2207.37
3050.21
1525.88
2997.61
1374.33
1212.64
1109.93
887.833
842.964
1693.73
803.221
1723.13
10123.2
1691.59
140.313
662.232
1718.24
1194.53
760.486
2153.94
1184.52
285.011
2848.1
10883.1
3653.43
7471.54
3686.98
2928.8
4744.84
985.729
1354.33
4837.38
3166.55
13624.5
9051.35
9031.02
1815.29
1874.3
324.063
898.857
1611.23
1596.16
1569.12
3013.05
1083.61
773.623
333.747
301.379
475.304
87.128
2108.52
1927.2
2123.92
1797.99
1797.07
1932.52
2479.19
1999.1
1691.81
919.368
1379.17
1695.06
1531.75
2053.51
1361.65
1308.67
1633.01
2094
1822.4
2235.56
1643.05
1491.02
1448.82
2491.81
1480.7
1901.11
1974.19
1418.43
2944.55
1798.1
2949.81
2135.03
3167.44
2019.44
1864.51
3437.72
1612.18
2410.54
2069.5
1246.29
1685.54
1080.38
1917.28
3473.89
900.964
1328.59
748.808
1289.88
2085.26
3895.23
2761.77
3193.02
2341.74
1989.7
1914.24
2208.14
2623.64
1662.51
1473.75
1287.29
1962.81
2224.66
2385.12
2576.35
2225.13
2282.44
2003.18
2524.85
2293.49
2727.31
1515.9
248.247
738.86
587.333
559.745
1737
1826.01
1836.4
877.351
250.538
2298.14
1672.38
2172.14
1972.43
2027.36
749.666
1802.94
1295.93
2122.69
3041.49
3074.07
2377.64
3038.71
6936.74
1241.7
3702.3
839.688
1168.67
652.182
1789.85
271.628
597.577
2023.78
4657.72
4403.62
6563.03
2485.83
4355.55
4810.57
3654.71
5026.41
651.468
442.983
119.077
650.174
2021.59
2163.62
4960.09
2721.56
1290.26
700.027
3012.22
1131.8
2983.59
SCALARS SignedDistance double 1
LOOKUP_TABLE default
53.8218
64.8736
59.4169
52.9725
48.0672
60.4681
182.422
41.5346
50.8215
56.6052
50.0427
53.2933
60.2622
56.4653
64.293
64.4532
53.5486
50.9165
49.0528
64.8111
51.7652
57.0368
56.3018
60.5889
52.2705
52.5518
53.1064
50.2662
79.9042
81.0905
54.3098
81.3515
53.2784
54.5766
43.9228
41.0147
107.653
72.5557
70.5949
65.641
56.4529
57.4636
68.245
64.2583
48.5082
51.9937
55.0237
56.5881
55.463
57.0366
54.8753
53.3827
52.949
54.0446
60.6368
52.6146
53.5178
50.8752
52.8276
60.5866
65.0284
53.1903
42.4371
47.0375
42.1952
58.0198
52.546
49.6692
53.722
56.6311
42.355
46.9353
61.8391
58.5733
55.8833
65.0213
57.0517
66.1218
67.651
57.028
57.254
58.6726
55.8648
54.0444
50.4875
52.1585
51.5242
51.2985
50.4736
49.8781
50.2837
55.0276
53.027
48.0732
59.3095
45.8401
48.4254
50.2742
57.4257
52.4687
58.4965
58.3772
67.1281
104.116
147.553
60.1699
51.9718
54.7745
55.8964
49.0483
41.1155
59.6715
49.7951
48.674
50.0378
53.0547
53.2145
56.4518
39.6143
48.9152
52.7629
61.338
82.8524
36.6305
56.7913
76.6318
63.2897
52.0575
67.1277
81.9148
84.0471
80.2408
69.9014
192.496
80.831
52.8339
50.6059
68.6033
73.5753
49.1738
49.1627
52.0692
53.0973
65.779
55.0173
58.7887
59.303
50.9886
52.5089
53.9349
45.4132
44.3807
49.7778
78.8396
57.9968
48.1455
57.3634
108.913
55.0348
74.9024
57.8646
62.8857
59.5826
51.041
47.0821
64.2485
58.6333
67.6328
52.1148
53.2199
63.5708
53.7934
54.8829
54.5922
53.8623
53.437
52.6936
57.5251
55.1435
58.4364
70.9823
69.2547
57.2055
53.6769
53.5684
52.9887
56.3861
63.5072
60.046
59.5212
61.7531
56.9326
47.2508
48.3576
54.7367
51.6977
55.3847
52.6193
53.2548
71.1198
55.437
63.9298
54.4342
54.842
54.3156
63.3334
50.8668
48.4218
51.5557
52.9422
52.2595
54.6422
52.9354
49.57
54.0646
57.0827
59.0826
53.5339
48.4597
56.7311
56.8441
51.2405
50.4002
48.7913
47.2029
64.698
50.9254
47.7465
50.435
58.6481
49.6717
57.4563
40.1418
42.3537
39.7895
46.0754
44.523
44.3065
44.9228
45.501
45.8944
53.0286
48.7273
49.4423
79.7383
59.362
60.8032
81.3407
49.1394
55.8539
51.8659
44.985
39.8804
59.9413
42.1504
56.8961
41.8514
45.4483
48.5414
44.2487
47.0694
37.68
46.3597
59.6384
55.4409
47.2246
53.8348
66.8987
55.2205
43.573
63.5086
52.3295
55.1688
64.2541
65.8818
53.2912
55.6902
58.1169
54.8906
64.6248
57.342
57.5958
56.6807
57.1433
56.7319
57.4085
59.1841
60.2801
63.5249
61.4627
62.3642
63.852
55.2756
68.7204
64.7894
55.9579
63.6115
63.0294
63.9558
57.9219
68.9596
59.0962
64.5484
58.326
54.8504
55.611
57.1047
56.3873
55.4571
59.8199
56.1887
60.294
54.6405
54.9061
55.7632
58.3322
62.448
62.2738
53.5074
54.4381
56.1029
51.8716
50.5973
50.8998
50.8604
52.3366
52.9686
54.6961
51.4002
54.3726
51.3991
54.3111
48.4228
49.1356
48.3157
57.9461
50.6182
57.6739
51.5296
52.8482
53.5253
58.0159
59.593
55.144
54.9551
54.2679
56.2842
57.0957
52.4231
52.1719
56.8737
47.1194
53.0588
56.4755
51.9989
57.5853
54.3416
58.7507
48.388
48.7599
51.3239
49.4292
48.4316
49.0475
48.9171
48.3673
50.531
56.4871
54.858
61.1627
51.4404
50.6381
63.3897
56.0233
52.8543
54.0603
61.3349
57.2502
59.9568
70.691
57.4787
59.9968
57.5162
54.7098
100.031
84.2218
173.126
86.0215
86.9937
79.3379
85.8679
120.545
119.347
81.1799
116.799
82.254
41.8125
45.5743
56.107
42.6055
74.6197
45.8759
73.3569
62.7507
65.0257
53.252
54.9587
50.9948
67.5652
67.5643
48.2318
47.1275
53.8763
53.2388
46.4057
54.9153
58.8453
44.8122
46.9595
62.8815
39.6501
49.4642
49.4716
48.7761
53.9494
52.5088
48.2202
50.7956
50.9884
46.8957
49.2325
54.8684
55.3264
59.176
51.9467
56.2588
57.5989
53.2417
54.0772
52.7234
44.7436
42.7187
48.4473
44.1439
39.9701
40.3548
53.7715
50.3573
54.4582
50.0057
49.1955
48.6829
67.2964
74.9404
57.3296
56.1769
71.5501
67.7826
72.3774
45.2509
36.2772
56.0456
35.5248
38.709
36.7057
50.5589
70.9701
69.3202
58.098
77.9759
70.798
79.9429
49.5762
62.1338
61.5507
62.5355
65.0351
61.6786
88.7887
70.266
82.7102
93.3857
67.3711
85.6397
67.3562
72.8222
75.8785
70.672
87.047
68.2414
83.266
100.947
105.738
179.785
133.516
69.377
101.054
64.5668
67.4028
116.666
80.6352
177.539
125.121
107.387
55.3628
52.1008
70.8776
67.9481
52.0046
50.8378
48.4419
78.1175
69.1139
65.2077
64.6337
69.8429
75.3067
65.7139
49.0907
50.964
51.6526
52.1553
54.9816
58.5746
53.9816
58.4331
50.9511
66.6462
55.4829
49.9632
50.2969
54.6508
49.8119
49.5326
51.7371
57.5363
54.3156
55.4172
55.7299
62.0701
53.1421
61.4257
58.7639
58.4377
60.4448
56.5478
61.6316
58.5314
61.2843
58.3857
61.3605
58.8595
52.6486
53.5584
54.3388
51.8479
61.7491
53.636
54.7297
53.2472
53.0216
55.1323
53.5574
51.429
51.5044
54.2946
57.7011
60.5769
58.3587
59.8464
48.3251
45.0869
46.314
48.5652
49.719
42.7084
52.291
49.9761
38.5658
40.4352
50.5397
51.7503
53.1377
56.416
50.7329
45.2663
48.7396
47.3783
77.8732
67.0277
79.5339
79.716
77.6953
63.6443
47.6808
51.3357
70.4235
71.7987
50.3306
54.3145
51.4485
52.4425
49.8971
69.074
50.3644
67.2998
51.1585
53.4354
58.5422
51.8366
70.8878
71.1535
127.849
116.843
80.1512
81.5068
59.5741
74.2099
54.2248
57.161
70.5316
81.6487
119.407
74.6154
61.1401
63.6169
61.8125
60.6195
61.4893
61.0297
57.3982
57.9891
58.99
63.6127
66.4504
66.8623
65.6615
58.1824
54.3667
62.0433
61.7265
63.8072
