# vtk DataFile Version 4.2
vtk output
ASCII
DATASET POLYDATA
POINTS 642 double
-146.518 234.357 92.7423
122.829 217.278 76.2813
-178.708 -283.641 131.48
159.17 -284.504 133.738
-5.74773 -290.588 398.454
-8.55699 52.1141 346.524
1.84068 -142.713 -76.2407
-3.62422 169.516 -222.605
259.883 40.0591 -78.9335
196.85 -57.3296 258.363
-279.463 45.3286 -80.6505
-223.814 -63.5198 259.324
-175.215 109.382 147.855
-129.685 6.77091 325.607
-93.3851 198.837 175.596
71.9258 200.172 173.435
1.62986 260.003 66.3885
92.2047 218.399 -103.645
-94.7043 227.593 -107.657
-169.707 108.525 -136.864
-315.55 151.575 -81.0435
-273.908 -45.962 40.9309
122.823 3.84122 316.356
167.601 85.0642 149.347
-125.591 -221.073 355.38
-5.03388 -41.09 400.436
-233.039 -187.074 11.3761
-228.558 -213.644 197.964
-3.67497 83.5159 -216.178
-169.947 -110.8 -122.959
287.52 146.528 -84.4852
184.115 99.9821 -171.124
207.209 -207.62 191.591
106.404 -213.406 347.442
78.1834 -346.814 318.238
-88.533 -351.96 322.144
-0.285215 -298.712 243.528
-195.839 -233.846 -22.642
179.803 -235.039 -22.1576
156.507 -118.299 -121.786
217.279 -181.268 4.35703
261.097 -39.3256 30.1022
-157.858 208.115 100.731
-128.132 202.6 160.27
-123.121 246.469 140.12
-186.588 -18.8601 300.999
-176.623 38.9897 262.802
-212.568 0.133291 232.331
-51.6269 150.257 263.411
-90.4639 123.801 264.595
-44.0959 34.8909 361.982
-85.2178 253.391 135.324
-83.9117 261.909 85.7984
35.3269 150.566 262.675
-2.08443 189.308 204.628
65.2178 263.707 80.3534
69.0687 253.449 136.409
100.284 241.184 138.357
-58.2434 259.631 -9.58676
-162.221 207.116 -29.1319
149.654 192.912 -23.4154
47.6134 260.326 -2.53306
-54.2114 212.285 -179.529
-5.22976 246.244 -116.734
42.269 210.259 -178.777
-270.248 189.444 -75.6709
-276.162 179.774 -77.8362
-82.9598 146.732 -222.672
-159.779 178.369 -140.559
-325.604 134.611 -82.7927
-294.135 144.693 -117.689
-272.88 102.552 -121.706
-286.237 140 -50.977
-283.45 35.4874 -36.0284
-320.708 132.496 -87.9077
-236.562 59.9576 55.9231
-247.08 -82.7406 179.528
100.786 190.589 157.394
134.451 191.235 77.3019
28.2784 34.9502 352.501
79.895 117.615 260.944
190.18 4.44816 232.207
164.469 34.7393 257.004
170.617 -24.267 295.29
-44.2373 -5.57729 393.122
-9.8374 6.41018 391.141
-192.738 -108.664 302.979
-149.183 -54.3417 342.974
-3.11416 -193.656 397.007
-63.5711 -140.072 395.007
-79.973 -255.646 395.769
-261.03 -138.72 143.714
-236.726 -134.437 228.553
-267.878 -88.8236 -37.868
-266.629 -103.698 37.8173
-212.99 -263.303 162.924
-254.893 -208.234 110.697
-217.099 -239.372 76.6301
-183.663 14.3053 -132.714
-228.16 -48.624 -94.7484
-5.3123 145.469 -237.373
-65.7056 144.759 -216.778
-196.911 -135.947 -115.361
-113.962 -30.8583 -172.892
15.9326 34.01 -116.269
149.692 170.075 -129.051
77.1839 145.424 -222
251.338 171.911 -72.5219
244.758 181.984 -81.1469
255.441 100.022 -116.117
272.3 139.564 -113.635
300.077 117.44 -83.9403
192.049 -253.785 164.091
142.825 -283.978 267.527
109.174 -319.303 253.042
175.624 -98.0698 299.544
166.426 -209.033 289.833
215.992 -136.064 218.925
33.5731 -327.075 379.839
97.1863 -280.757 361.273
62.6651 -257.157 393.106
48.9337 -348.371 308.232
118.976 -305.433 176.732
-45.7529 -332.744 386.891
-6.60764 -372.303 343.831
-119.163 -300.039 181.471
-65.0331 -354.301 320.6
-121.175 -324.048 259.689
170.587 -274.237 73.0536
167.054 -260.643 43.0707
-178.997 -265.341 47.8815
-174.823 -244.638 82.1062
160.686 -179.695 -49.9225
7.55116 -207.08 -73.0507
-157.628 -174.834 -46.1266
180.458 -231.402 -21.8168
201.622 -232.416 69.0851
162.195 -134.725 -112.386
173.296 -183.029 -73.0706
255.243 -85.6441 -35.256
200.631 -151.823 -65.0923
226.132 -48.2251 -88.3021
229.509 -206.617 107.891
271.048 25.5576 -24.53
257.737 -92.5826 17.2206
229.99 -139.556 152.214
222.83 -81.6502 172.675
50.1037 -139.382 393.03
138.042 -56.618 338.122
28.2905 -7.20374 383.937
-162.153 -289.519 276.676
-116.44 -282.977 367.529
-188.235 -212.742 301.833
-190.559 -181.408 -78.6671
-197.083 -235.855 -22.8778
-211.704 -153.631 -70.2364
179.671 25.1393 -123.177
105.547 -25.2249 -175.683
59.3907 148.105 -221.108
214.903 39.0753 46.83
299.318 106.937 -82.9168
257.923 136.888 -51.3555
-155.94 220.423 98.5091
-143.021 232.507 132.9
-131.969 247.772 124.475
-135.693 171.586 156.506
-144.378 216.921 138.07
-158.625 185.412 102.516
-113.924 238.577 152.906
-131.865 228.938 149.212
-116.772 207.286 168.138
-205.483 -40.5275 280.02
-202.036 -9.24661 268.072
-220.867 -30.6754 247.68
-163.601 22.3577 294.835
-182.772 9.66913 285.444
-166.371 -5.09749 312.614
-202.963 35.1313 204.845
-195.367 21.8065 251.537
-177.034 65.1619 219.649
-23.1262 97.6297 287.743
-38.5927 80.8777 296.802
-28.5972 42.3137 358.561
-84.8639 168.632 234.266
-70.2353 144.71 265.633
-69.2292 171.772 239.859
-78.1171 21.4367 347.664
-74.1187 68.5906 296.906
-113.792 47.6744 300.046
-143.207 116.891 206.358
-129.784 74.2221 259.247
-109.294 160.611 217.267
-112.842 258.031 124.023
-116.907 257.337 97.2196
-97.6482 242.225 150.917
-105.134 252.163 138.824
-67.6472 265.611 71.0841
-91.5009 260.117 117.518
-56.2353 257.107 108.751
11.0096 99.6826 287.506
-4.54316 149.328 263.922
49.4205 192.455 191.973
22.5441 168.936 244.885
52.0185 170.072 235.447
-34.0284 168.075 245.761
-62.8757 191.428 198.403
91.5347 252.4 88.5191
90.1192 255.233 122.629
109.095 240.375 122.645
50.5801 257.881 109.385
72.5425 259.867 115.888
57.2426 266.901 71.1587
90.5392 236.346 151.513
82.5973 250.966 139.938
77.7158 242.45 150.311
-47.3726 230.799 154.07
43.1306 231.598 151.645
1.50262 248.292 133.193
-98.2613 263.569 44.0164
-143.96 218.96 28.3885
-44.7329 262.971 35.9688
-74.1492 272.207 41.2275
-124.472 225.965 -60.486
-85.7516 258.036 -8.56349
-71.6344 256.826 -63.0836
131.154 204.211 18.0197
83.4494 261.329 39.9646
60.7113 251.119 -58.5042
76.6817 255.151 -1.69867
125.736 207.77 -67.3643
62.0396 272.005 43.0554
38.351 266.464 36.8705
-28.3924 195.768 -205.61
-4.21758 212.641 -184.035
19.2363 195.292 -205.747
-48.5434 242.017 -114.515
-29.3122 230.562 -151.064
-76.2047 224.621 -149.453
63.9847 219.994 -146.294
18.492 228.763 -150.394
36.5814 240.195 -114.588
-3.23372 259.579 -12.7105
18.0913 258.091 -69.9691
-30.3002 258.311 -70.7534
-238.963 192.492 -61.8643
-191.752 193.3 -30.0054
-197.25 179.956 -56.1482
-238.244 193.785 -60.446
-300.646 170.714 -80.5003
-273.197 188.899 -76.2659
-293.251 175.253 -81.6954
-42.3321 157.024 -225.54
-68.7202 183.542 -205.93
-173.802 148.751 -147.636
-107.542 163.237 -198.198
-115.935 140.243 -209.607
-93.5715 200.879 -175.632
-130.188 202.605 -139.518
-310.705 105.911 -83.1156
-302.897 121.912 -101.837
-283.833 80.6895 -104.297
-319.105 154.177 -91.2571
-314.818 138.207 -97.4274
-327.398 140.997 -84.3143
-259.096 111.939 -125.754
-284.84 130.22 -119.412
-266.774 131.816 -124.778
-234.979 167.546 -111.691
-254.658 157.839 -121.675
-283.168 173.339 -100.32
-203.294 157.778 6.4343
-306.692 149.564 -72.0316
-289.203 155.586 -59.2583
-215.075 142.009 5.93215
-223.447 110.924 20.4833
-285.583 41.5352 -59.6518
-317.111 110.59 -74.2444
-302.487 61.603 -51.9762
-314.537 103.651 -71.6244
-285.435 -0.252191 1.20741
-326.087 138.004 -84.0142
-327.478 141.091 -83.9431
-229.735 -32.4763 214.32
-233.471 -69.1693 225.212
-223.475 59.5441 106.917
-223.277 8.82957 181.346
-257.034 -73.8884 117.449
-236.681 -27.5448 149.632
-259.668 1.88197 31.6701
-300.809 135.077 -64.3427
-284.369 107.825 -44.8692
-273.146 107.892 -31.863
116.237 226.857 129.49
128.866 205.278 72.8627
88.9692 202.869 165.889
106.814 225.313 144.21
147.775 155.269 91.4574
117.153 210.26 133.958
118.288 146.713 162.906
9.55312 44.4366 353.846
23.6771 85.8472 293.046
105.081 47.1338 293.289
63.0108 69.7564 288.515
70.3634 20.4639 333.003
54.7191 141.37 261.751
68.7163 163.918 230.536
194.927 -25.1176 247.195
182.945 -8.94679 263.513
184.019 -38.2194 279.447
165.776 51.759 221.743
179.627 21.2744 246.858
182.098 31.4409 208.435
151.946 -10.9721 306.127
168.078 7.48738 277.465
149.825 19.1452 286.709
93.1229 148.746 218.936
118.734 68.4234 257.618
126.617 98.3539 213.135
-29.0481 20.5634 380.965
-10.1057 26.2447 375.781
-76.0134 2.04819 362.084
-45.4056 12.0666 381.956
-9.94516 -11.2145 399.458
-30.1845 -1.17288 395.287
-28.8855 -16.7143 400.175
-214.667 -78.0136 279.796
-192.366 -55.3626 302.482
-137.878 -122.722 342.435
-172.042 -77.2266 326.049
-158.053 -163.832 321.116
-169.999 -36.2389 323.712
-142.603 -22.3079 335.09
-2.88002 -254.169 398.554
-52.0697 -236.997 399.128
-47.785 -273.185 398.579
-30.1122 -81.5281 386.741
-45.2666 -164.798 396.339
-2.29965 -109.88 399.6
-94.934 -250.37 384.554
-70.0433 -225.872 391.825
-81.9221 -198.379 376.739
-88.6754 -29.9785 359.914
-90.4936 -91.9162 366.525
-52.7842 -47.2138 391.858
-246.714 -106.847 202.065
-231.739 -96.1051 244.238
-262.42 -102.309 110.44
-258.897 -111.595 163.487
-232.08 -174.126 217.092
-255.953 -132.799 185.597
-245.654 -170.985 158.509
-275.652 -38.9439 -56.8562
-277.48 -47.3827 -33.7414
-251.721 -146.079 28.346
-272.699 -93.2534 -12.2808
-242.188 -130.04 -16.7076
-277.592 -60.2898 -2.81865
-274.967 -75.9541 43.8855
-197.291 -276.423 147.465
-221.133 -252.435 120.102
-199.896 -266.675 105.111
-247.97 -213.688 138.109
-237.674 -233.485 129.941
-221.331 -240.784 178.065
-229.875 -214.64 42.4597
-240.489 -225.949 96.642
-246.64 -201.997 72.4339
-262.709 -140.457 93.9596
-259.817 -173.397 91.0734
-260.108 -180.957 118.616
-251.592 41.0464 -108.251
-258.404 -4.15706 -85.9055
-195.312 88.0287 -129.324
-242.233 69.0857 -124.621
-192.943 -89.0404 -115.085
-212.402 -14.9235 -117.554
-169.239 -59.7721 -141.681
-5.01256 145.38 -237.004
-35.6835 147.286 -233.01
-27.9475 107.279 -212.855
-31.0987 147.054 -234.026
-6.20812 130.978 -223.703
-78.0009 147.493 -224.714
-116.431 140.179 -209.988
-127.196 -142.696 -72.7976
-150.338 -69.4114 -102.458
4.36431 -121.169 -69.6823
-151.09 -79.1924 -149.115
-160.103 -92.3768 -142.656
-175.144 -120.575 -115.064
12.9226 78.2134 -229.995
-98.9103 -13.4558 -182.129
-46.0968 39.1834 -205.354
-111.434 86.2981 -165.41
[...]
POINT_DATA 642
SCALARS Mean_Curvature double 1
LOOKUP_TABLE default
0.0279487
0.0339991
0.0250383
0.0239585
0.00264469
0.00413835
-0.109069
0.00687713
0.00357616
0.0119406
0.00491669
0.0146496
-0.00191557
0.00320261
-0.0308538
-0.0184709
-0.00381636
0.00404114
-0.000851037
-0.0392922
0.0237009
0.0188648
0.0053852
0.00110722
0.0012214
0.0263244
0.00482487
0.00769863
-0.0205445
0.0578323
-0.0565259
-0.0863707
0.00396997
-0.000405388
0.0403142
0.0332967
-0.00542122
0.0239628
0.112019
0.00897455
0.00837509
0.0364902
0.0128397
0.0151039
0.0373173
0.0158079
0.0130583
0.00453323
0.0102909
0.00926727
0.0128327
0.0206538
-0.00337016
0.0189074
-0.00172338
0.00417739
0.0278383
0.0341227
0.000224951
-0.010223
-0.0146732
0.00345382
0.0103564
0.0088473
0.0127826
0.0402122
-0.0203956
-0.0420375
0.00488947
-0.0746473
0.0453672
0.0213859
0.00905842
-0.0362924
-0.0842711
-0.00868431
0.000764983
-0.0039983
-0.00279023
0.00567141
0.0121173
0.00902429
0.0142263
0.0149932
0.022428
0.0144376
0.00619478
0.0125507
0.000674501
0.0275946
0.0249595
0.00986786
0.00639331
0.0206734
-0.000543222
0.0187586
0.0251712
-0.00203462
-0.00199827
-0.000170021
-0.157766
-0.0156952
-0.0456565
-0.0210328
-0.0137315
0.00552262
0.00774413
0.000409317
0.00241828
0.00495995
0.0295469
-0.210206
0.0106344
0.00599954
0.0163086
0.0116305
0.0130233
0.0101565
0.010134
0.0181534
0.0299603
-0.00679123
0.210356
0.0222236
0.0883583
0.0117423
-0.0400443
0.0214531
-0.0228864
0.0827787
0.191408
-0.0174404
-0.0215634
0.0377938
-0.0165906
-0.0239215
0.002266
-0.0440639
0.666474
0.025248
0.0140447
0.0190087
0.0220598
-0.0346546
0.0345097
0.00257456
0.00298654
0.0202323
0.0182834
0.0152218
0.0120151
0.019378
0.0239434
1.11715
-0.0384433
0.00869448
-0.00463232
0.0575536
-0.018624
-0.0112779
-0.0862864
0.00471362
0.0189903
0.0414093
0.0262479
-0.00849326
0.0184767
-0.00659546
0.0305573
0.0352894
0.0316643
0.00522767
0.00677318
0.0120769
0.010512
0.0125345
0.0131833
0.00284676
0.0098754
0.00436972
0.000320989
-0.0102623
0.0182762
0.0206723
0.0225928
0.0235873
0.00330801
-0.00452832
0.00545879
0.00161254
-0.00509352
0.00512415
0.0334483
0.0131761
0.0169948
0.0281673
0.00931543
0.0230213
0.00152786
0.00620515
0.00820683
-0.000460706
0.0114817
0.0221772
0.00790685
0.000291241
0.00656483
0.0348492
0.0241888
0.00204306
0.0349699
0.0170784
0.0373699
0.043393
0.0299068
-0.00271356
-0.00446342
0.0132809
0.0132822
-0.00442767
-0.00215526
0.0321941
0.011036
0.00734418
0.0149744
-0.00146591
0.0163587
0.00908089
0.00721274
0.00416599
0.0380293
0.00382611
0.0154988
0.00760571
0.0190573
0.00478576
0.00676656
0.0128902
0.0102393
0.00561929
0.00585085
-0.00136517
0.0092132
0.00661616
0.10961
-0.0278854
-0.0296827
0.0259241
0.123106
-0.283776
-0.00806274
0.00129414
0.0137583
0.0128153
0.00488523
0.115449
0.0113169
0.0137913
0.0103963
0.00783469
0.0202294
0.068518
0.0301835
-0.0139708
0.0073211
0.0170574
0.00973287
0.00518504
0.0309807
0.0271377
-0.00431957
0.018007
0.0206922
0.00092991
-0.00749196
0.0129205
-0.090095
-0.0543191
-0.17475
0.0327058
-0.570286
0.118876
0.00558417
0.00112387
0.0120181
0.00621415
0.000877288
-0.00216185
-0.00622972
0.0137672
0.00151994
0.00464923
0.0362421
-0.00680457
0.0233697
0.0278956
-0.00140032
0.00974317
-0.00405659
0.0204696
-0.00711809
0.00896187
-0.00740377
0.00128647
0.0128676
0.0135258
0.0101776
0.0074604
0.00974239
0.00678742
0.0185446
0.00432643
0.0100097
0.0141163
0.0083099
0.00749743
-0.00231372
-0.0013666
0.0220009
0.00963796
0.00985202
0.0200662
0.0235586
0.0276887
0.0189855
0.0131705
0.00561284
0.00308849
0.00880486
-0.00455425
0.0142845
0.0087615
0.000889221
0.0103746
0.00199749
-0.0207822
0.000834751
0.0227936
0.00457256
0.0147142
-0.00885194
-0.00514149
-0.00480204
0.0204934
0.00539051
0.00784848
0.00367531
0.0115501
0.00336465
0.0180689
-0.00857719
0.0256629
0.00676694
0.00182278
0.018944
-0.00843549
0.000259414
0.0175677
0.0128252
0.0109823
0.0108322
0.0143181
0.0127728
0.00311121
0.0101187
0.0153741
0.00703335
0.00299055
0.0104343
0.0146298
-0.000574212
0.00746799
0.00312864
0.0140668
0.00495694
0.00567974
0.00655392
0.120936
-0.256164
-0.00801661
0.104022
-0.0102081
-0.390898
-0.0496598
-0.00904893
-0.0154733
-0.00733179
0.0067228
-0.0721722
0.172526
0.0223707
-0.0234203
0.00205284
-0.0119093
0.00141396
3.4315e-06
0.00624543
-0.00340191
0.0097273
0.0108742
-0.0844284
-0.00239709
-0.0291914
-0.0143422
-0.106822
0.0104135
0.209271
0.086961
-0.0772964
-0.0341632
0.0198511
0.0186997
-0.0158406
0.0195522
0.0353183
-0.00364792
0.175991
0.0269462
0.0807267
0.0238755
0.0410453
0.0219414
0.00452836
0.0108669
0.0169782
-0.000571077
0.018614
0.00806338
0.00716997
0.015205
0.0119791
0.00503531
0.00910836
-0.00354857
0.0115823
-0.00156595
-0.00480834
0.00813504
0.00555941
0.00520918
0.0172612
0.0281802
0.00917952
0.0107916
0.0217889
0.00765395
0.0031141
0.0292109
0.00111387
0.00823533
0.0137901
0.00372906
0.00131456
-0.0829046
0.0589351
0.0439138
0.0126546
-0.0682276
0.0029487
0.0186538
0.0222942
0.0558993
0.026631
0.00685036
0.0266682
0.0416277
-0.0217898
0.00441363
0.0272676
-0.00256303
0.00586851
-0.00881214
0.0332887
0.0484172
0.136427
0.0295317
-0.0160252
-0.0144664
-1.44927
0.0584939
-0.0111626
-0.0158209
-0.0344419
-0.304491
-0.0473079
-0.00853038
0.0495519
-0.0271988
-0.0121477
0.097252
0.0448507
-0.00726096
0.0525678
-0.023285
0.0430266
-0.0246848
-0.0400816
0.0693377
-0.0349646
-0.0271554
-0.0239523
-0.0027603
-0.00208705
-0.00658669
0.00901494
-0.000664839
0.387922
-0.151759
0.00674701
-0.00304581
0.00985841
-0.028323
-0.0190784
-0.115649
0.247057
1.00963
0.0608208
0.911445
0.023449
0.0105854
0.0136061
0.0100903
0.00141678
0.00628823
-0.00646874
-0.00665022
0.0106324
-0.173784
-0.0136657
-0.00130347
0.0111845
0.00396884
0.0230425
0.0221328
0.0139072
-0.00516252
0.0048637
0.0124389
0.000559321
0.00863559
0.0181898
-0.017142
0.00252162
0.00471626
-0.00310163
0.02489
0.00102968
0.0109229
-0.0019628
0.0204844
-0.00939389
0.00748888
0.0159686
-0.00535044
-0.00139406
0.00329169
-0.0130816
0.0147674
0.00638318
0.0165335
0.00614109
0.00762231
0.0256114
0.0232421
0.0336465
0.00926951
-0.000868846
1.86914e-05
0.00640212
-0.00153296
0.00729705
0.0117786
0.0110036
0.00963927
0.00391212
0.0228144
0.00933899
0.0290458
0.0155907
0.0108731
0.00902005
0.00119094
0.00775384
-0.00501533
0.0167174
0.00930514
0.00615868
0.00782689
-0.029653
-0.0666488
0.0396896
0.0743968
0.101352
0.0131612
0.00459488
-0.00710847
0.167998
1.5924
0.00836872
0.0235481
-0.000799443
0.00357339
0.00949898
0.312135
-0.000943605
-0.0695232
0.0030792
0.00388939
-0.0079341
0.00671749
-0.0300221
-0.0185246
0.064198
-0.0257528
0.0337496
0.0935262
0.014222
-0.0702061
-0.466638
0.0672914
-0.0164075
-0.00198593
-0.00595714
-0.0159859
0.000798796
0.000463074
-0.000633112
0.00260173
0.00840807
0.254395
0.0604662
0.276431
0.179482
-0.0758178
0.00172455
-0.00787458
0.00337479
0.0256397
0.010522
-0.0022075
-0.00609879
0.0100768
SCALARS CoVolArea double 1
LOOKUP_TABLE default
1687.4
1576.79
1039.02
1309.86
1072.59
1229.21
1052.5
1109.48
1594.92
1066.01
1496.94
895.948
6726.51
1863.97
1247.16
1011.57
2706.74
2899.22
3312.39
2217.96
188.647
2383.99
1909.8
5895.86
2633.44
1129.47
2047.34
2446.54
1475.68
837.924
140.845
1604.74
2147.06
2775.86
1118.91
1245.9
6359.1
853.49
419.274
1201.46
2000.26
1601.76
1324.13
1483.09
363.913
977.047
2010.05
1455.35
1433.34
2455.13
1516.29
1229.86
887.129
1262.49
3491.7
734.348
888.317
341.905
2101.99
3330.84
3084.76
2004.28
1539.5
1919.03
1494.6
1114.95
1808.92
779.009
2354.62
264.139
801.559
1039.59
1435.42
1820.91
804.858
4833.41
2248.47
1801.12
2063.76
1863.34
2282.89
1152.39
1620.01
823.87
978.571
455.367
2252.15
2370.58
3071.82
2594.26
752.404
1636.76
1835.8
1400.66
2102.01
1526.88
914.187
1652.72
4636.92
2458.19
178.954
2708.21
2350.1
988.797
17663
3589.44
794.031
1178.74
558.952
985.728
825.751
178.627
1365.87
1936.43
1438.76
2003.62
1717.16
1477.32
1519.08
1336.14
613.564
909.596
277.13
1414.42
584.971
1025.59
1204.96
1373.89
6886.11
180.537
285.39
8047.39
3482.51
8101.06
3660.45
726.025
1497.24
1096.42
56.6593
1133.63
1438.11
2047.17
877.357
1434.72
1397.57
2344.9
2542.42
2810.83
1573.47
1404.38
1903.88
1488.57
1640.1
53.2655
709.958
1534.32
5384.94
484.815
3301.7
5501.03
1141.24
1328.72
2015.18
517.869
656.305
3050.19
973.762
4265.57
555.026
463.406
1076.49
1053.44
1086.13
1180.4
1740.26
933.435
996.817
3321
1352.22
3047.36
1970.74
1916.55
1051.83
1356.92
1460.33
1111.14
1985.24
2674.25
2825.78
3183.33
3334.99
2752.81
548.77
1733.97
1231.21
350.53
1424
679.751
2432.99
1779.24
1771.55
1914.95
1695.38
1050.86
1838.67
2460.84
1918.56
604.428
840.384
2139.84
495.546
1042.73
483.413
304.306
833.809
3133.23
2643.31
2253.59
2705.98
3138
2332.55
1169.64
3494.33
2758.34
2467.04
2813.16
2334.12
2971.59
2956.8
3719.35
909.38
2062.05
1487.71
1571.55
1426.05
2029.64
1745.27
1852.58
1981.64
1699.81
2226.15
3001.38
2534.22
2479.12
1194.4
3349.88
4091.08
1255.82
321.131
112.082
318.06
1121.77
1572.69
2971.56
2116
1157.64
1972.36
3512.78
1045.92
795.781
1543.68
563.418
388.212
99.7637
1297.49
509.139
1631.28
2808.45
1645.68
1076.76
3331.94
367.663
1432.64
2532.52
5790.4
1611.13
492.542
2429.01
648.208
1644.89
56.8573
171.903
2097.2
1408.8
5059.06
3224.41
3359.24
5142.84
6154.45
547.43
3142.3
2175
672.055
1526.86
1166.36
511.544
5528.98
1818.8
3963.33
1099.63
1956.81
2555.65
2809.98
2322.67
1557.19
1423.53
1140.62
845.398
861.512
2653.62
888.7
2292.17
940.304
840.231
1549.16
2690.86
2763.76
2987.21
509.853
620.188
1474.62
697.145
424.622
376.007
866.96
1353.61
1303.72
3974.66
2018.69
2747.28
1061.66
1559.52
1948.18
1869.28
1268.39
2108.03
2481.52
2358.61
996.036
1260.31
3364.8
2435.05
4060
2327.85
1303.74
1390.51
2103.52
1407.6
2266.7
1562.21
2098.19
1760.75
1619.42
2616.99
1680.38
1951.37
2049.31
2067.62
1410.26
1169.83
1321.85
1501.2
1058.94
1744
1497.04
1127.66
1736.53
1960.79
1782.47
1324.86
2042.44
2118.36
3818.86
2313.36
2149.55
2817.42
2330.92
491.336
166.334
2043.42
636.892
918.696
191.305
2049.49
3741.34
10909
12710.6
740.431
1559.84
382.272
5566.21
6294.32
1499.27
5957.82
3728.64
3657.92
1567.08
1107.25
2668.05
2342.04
1267.92
2695.36
3873.67
2338.34
1087.86
222.807
157.176
314.666
1217.08
2222.51
1259.63
607.389
937.217
1494.67
545.336
746.068
81.5116
436.425
468.823
1854.74
854.655
2250.12
1497.46
1587.8
1647.82
2221.92
1597.11
1488.58
815.153
1354.31
1363.91
1259.92
1963.77
1538.57
1989.14
2321.61
2837.33
1773.8
1864.48
2141.59
1156.94
1091.04
1101.3
1550.81
1346.33
1553.81
1174.48
724.568
1168.71
2284.8
1749.35
2037.31
1085.48
867.735
521.427
812.594
2757.32
845.389
3084.15
1106.21
1241.7
791.895
1188.45
1579.35
1264.74
885.017
1325.36
1232.23
1616.63
3628.47
1367.11
3014.14
840.697
623.244
403.787
333.152
301.284
1849.51
37.9525
965.041
11853.8
1195.1
120.335
451.334
2105.06
968.877
610.594
2643.82
1035.36
323.026
2260.09
12422
3904.74
8355.87
3773.38
2979.18
5037.42
968.663
1423.36
5163.88
3030.72
15907.1
9243.38
9349.4
1251.95
1614.73
71.0699
396.376
1310.77
1257.12
1301.23
2904.07
1064.97
316.108
255.599
50.5121
473.105
69.6788
1629.9
1541.24
1595.74
1475.94
1489.96
1663.38
2436.58
1785.25
1376.47
329.775
740.443
1211.94
1226.99
1744.08
998.642
915.588
1280.59
1753.6
1500.21
1863.44
1276.17
943.137
1132
2290.98
1235.97
1696.04
1655.64
1076.73
2676.7
1514.84
2728.16
1691.15
2941.08
1713.63
1552.67
3293.63
1306.84
1988.66
1689.76
922.421
1372.73
768.518
1569.13
3169.34
604.654
967.609
444.98
1010.29
1795.14
3532.67
2389.59
2912.92
1845.5
1532.57
1493.48
1811.86
2279.25
1154.76
1094.15
845.16
1472.63
1768.38
2054.08
2254.06
1917.01
2052.7
1672.36
2073.85
1786.08
2282.55
1444.42
235.13
734.721
518.884
223.75
1256.98
1522.62
1437.25
395.517
45.2753
1956.98
1225.15
1969
1710.61
1783.52
259.664
1268.19
643.182
1796.24
2921.24
3025.73
2324.42
3365.11
8721.7
903.242
4575.54
714.257
705.498
182.899
1958.77
120.52
633.653
2019.66
4325.13
4136.38
7297.69
2294.99
4573.34
4851.69
3464.69
4736.98
398.451
292.363
46.0087
450.634
2024.34
1952.71
5047.5
2623
954.947
456.002
3337.35
992.721
2802.52
SCALARS SignedDistance double 1
LOOKUP_TABLE default
28.1949
35.0083
37.551
39.1122
24.0122
31.3919
172.703
21.4606
24.7757
27.7819
24.2234
25.3947
30.3187
29.8079
37.265
38.1058
26.8378
25.6592
24.8507
33.6872
26.307
28.3889
27.3853
30.026
25.8282
26.2217
30.3132
26.89
72.9609
66.2063
27.8585
79.1926
27.8703
28.1713
23.8923
23.2151
91.3881
47.8976
48.6285
58.4576
31.8687
27.5256
37.7758
34.5958
21.3249
24.2193
25.8319
28.5476
26.5645
28.4473
25.7162
25.3574
27.7617
26.0326
33.79
28.6012
25.6057
23.0779
26.4545
34.007
36.1537
27.1379
21.2389
24.0301
19.8689
40.5522
29.6619
32.0376
32.2363
38.8581
23.7387
25.7271
32.6819
34.6598
33.6412
35.1843
28.9279
33.9784
33.8852
27.505
26.9507
28.9491
25.8316
25.114
22.7046
25.0183
25.953
24.4574
26.131
25.0759
24.6657
27.3749
27.3148
21.0555
35.1631
20.9809
23.5552
24.9847
28.531
27.966
31.9452
28.387
53.0744
93.8009
128.359
36.8716
34.8208
25.948
30.0126
23.6278
20.221
41.1074
23.6849
23.8762
27.5708
25.5358
26.9699
28.47
19.9631
25.4731
26.1633
30.5283
56.5299
16.028
34.626
63.5001
30.7592
26.8493
50.5877
54.4068
61.1596
41.2774
37.7103
186.899
52.7731
43.6029
24.1279
51.0724
43.912
22.7712
22.2395
28.18
27.9851
47.7105
26.0693
29.1818
29.1892
25.7981
25.4635
26.343
22.0095
23.7309
25.7159
47.9276
47.8535
22.9295
31.4132
88.9932
30.4407
44.5457
43.501
32.8837
35.8011
24.0284
22.194
34.5362
28.9291
36.9709
26.0008
26.7542
38.0417
27.2984
27.3128
25.9043
25.5193
25.5717
25.1066
28.9561
26.6696
28.2167
42.1066
39.4711
28.137
25.1692
25.6506
25.4932
27.6209
33.7748
30.2528
29.5867
34.3711
27.6815
24.7586
24.4936
26.5613
24.4881
28.4746
26.9297
27.5793
42.239
26.5425
35.6456
25.6543
26.1054
25.558
35.6371
24.3633
22.4842
25.056
26.2554
26.6994
28.376
23.9741
24.1269
26.1556
28.4845
29.1756
25.9101
23.2702
29.148
28.8277
26.8565
25.1218
24.7288
23.5075
33.0221
24.8908
23.1722
24.236
31.3672
25.708
30.2098
18.7244
22.0707
18.5456
23.3768
22.8382
23.6351
21.7498
23.616
22.4346
26.4073
24.844
25.0779
55.9208
39.4887
32.6439
55.9955
26.3308
39.3055
26.5625
25.5227
19.1722
37.6739
20.7043
39.3433
19.9793
23.1058
27.513
21.923
22.237
23.3565
24.2735
38.3144
29.6057
23.3364
28.6194
42.6435
33.5122
22.8329
32.0275
26.3932
27.3865
31.9556
35.4892
28.8521
37.5864
40.8249
37.8708
45.9461
39.2955
39.1547
28.4403
29.2397
26.8626
28.5361
31.0785
30.9446
33.4196
29.8628
32.6352
31.6192
28.4901
35.2503
35.8391
28.4076
31.2434
31.4944
31.8772
28.1927
40.697
29.1382
35.6089
29.598
25.83
26.4941
26.8898
28.0846
28.8494
29.4509
26.819
30.0044
26.1934
25.7741
27.159
28.3039
33.4872
31.098
26.1245
26.2875
29.5488
24.1371
25.0197
24.7231
25.7616
25.6258
26.4936
31.2824
25.0087
27.9844
24.378
26.7984
24.1156
24.6948
24.1402
32.9368
25.872
31.9984
24.4976
26.3082
27.8713
31.823
33.4087
28.9437
28.5047
28.5655
28.4119
28.5931
26.2395
26.5949
32.372
25.1702
27.1734
31.943
24.9649
34.6152
27.2945
31.2386
26.3084
23.4646
29.7447
23.8161
24.7914
25.9112
22.7209
22.5596
24.7055
28.6996
27.215
34.6174
26.8008
24.6765
35.3834
34.4585
37.3947
30.3574
49.4145
32.0413
31.4991
49.4329
30.4146
32.0778
33.6012
39.0374
81.052
45.7329
168.097
75.8075
74.6383
61.8378
84.1346
109.858
117.617
66.7921
112.203
69.9879
21.2079
26.4655
30.5228
20.175
58.2123
27.4396
44.6127
30.5256
44.692
25.8189
28.641
27.8158
44.3688
36.2192
23.2543
22.881
37.8035
29.5556
22.428
34.3087
39.3883
29.2463
29.7065
37.4283
19.9386
28.8206
23.7456
23.6273
37.1227
26.3217
22.6936
25.0558
25.1772
22.0667
24.2458
27.6758
27.1007
29.9268
25.0177
28.9665
31.9342
25.6308
26.5604
26.1408
22.9015
21.671
24.3463
23.8259
17.5445
20.8316
26.2783
24.6343
28.1149
25.8536
24.4227
24.7553
44.5901
57.6149
31.7564
29.498
47.119
38.2095
43.516
23.9368
17.5391
35.2318
18.1069
19.6095
17.8756
31.6358
47.5795
42.3714
39.1106
51.9969
37.5608
46.1671
26.9824
34.1407
31.8911
31.0295
31.6825
29.7178
55.9202
54.1491
48.3848
57.7978
49.0718
55.5277
48.7657
58.0331
67.453
35.8012
63.404
51.8175
69.5782
75.3292
86.5969
175.338
118.667
38.3973
79.0726
48.6286
32.3501
97.353
56.356
173.617
110.692
88.5674
45.0011
26.8407
47.8589
49.9309
26.2419
28.8711
22.0484
50.111
33.5395
43.7347
43.2899
56.6551
44.3642
44.5635
25.8279
24.7962
25.4589
27.4061
33.8778
35.9523
25.6067
34.881
27.3169
44.6659
39.7974
26.3584
24.4289
28.4336
22.9486
23.3224
26.5162
32.7189
27.7987
27.9376
27.8994
40.5583
25.3256
35.8593
29.5348
28.2944
35.0675
29.0856
31.4658
28.8773
31.1617
29.2702
33.6509
29.876
26.7928
27.129
27.5822
27.3276
36.2265
25.5687
27.0483
25.3526
26.3145
28.6837
24.7728
24.4654
23.4235
26.1165
28.6748
35.3773
29.1966
34.528
23.4492
21.527
23.5797
24.0698
24.7804
23.046
26.1686
26.2478
17.7631
19.8419
23.6563
26.342
26.8197
29.0939
25.4089
22.291
24.7754
22.7859
42.0101
49.0585
49.0968
52.0541
52.5558
52.886
22.0259
31.5518
52.6521
48.4131
26.0339
44.4718
24.6664
33.1315
24.3517
49.7405
31.9453
47.8115
24.2279
37.3336
33.0945
30.5003
66.8851
36.2875
117.03
95.054
66.0394
67.386
35.5078
58.0852
33.7561
34.3702
49.9052
69.8381
117.446
53.7574
31.2641
32.2741
30.8705
29.304
30.153
41.7253
39.5739
40.7954
36.3707
49.3008
32.8138
36.3093
32.5058
28.1995
27.2795
31.1577
30.5093
30.7469
