# vtk DataFile Version 4.2
vtk output
ASCII
DATASET POLYDATA
POINTS 642 double
-158.796 248.184 92.1043
141.924 232.835 77.5076
-184.742 -301.829 127.826
167.336 -298.161 131.577
-5.34244 -291.65 416.6
-7.85492 68.3189 360.942
1.59714 -152.951 -94.6022
-3.31163 177.469 -236.376
276.496 35.1905 -85.8869
216.094 -55.5743 265.826
-295.407 39.391 -88.4463
-241.447 -60.6191 267.218
-193.963 120.069 155.326
-139.227 17.5512 341.184
-98.1084 217.245 193.67
80.4019 217.294 192.326
1.08778 280.021 68.8049
100.47 234.952 -109.045
-102.278 243.608 -112.777
-183.635 111.665 -155.787
-328.125 160.834 -73.3299
-293.885 -42.5425 47.2064
132.436 14.0455 331.979
185.972 96.5465 156.218
-136.563 -218.675 371.386
-4.16081 -42.1711 419.986
-250.393 -195.239 5.2647
-245.323 -219.68 203.722
-4.49895 82.7745 -222.234
-177.239 -120.564 -142.069
301.401 155.429 -74.4848
186.569 94.1367 -174.404
225.29 -214.102 197.637
119.086 -212.245 363.985
87.2063 -359.606 320.889
-95.5871 -363.77 325.116
-1.20162 -320.391 230.638
-189.357 -247.773 -31.6005
173.689 -248.268 -31.4146
161.73 -120.168 -128.1
235.972 -189.438 -0.279746
280.715 -37.0084 37.0093
-181.323 213.894 109.294
-145.364 209.759 174.219
-130.622 259.003 148.706
-200.473 -13.2566 312.618
-189.654 50.8391 272.67
-231.303 8.5633 238.647
-52.9816 162.687 279.513
-101.29 133.826 279.855
-51.3117 48.3165 374.975
-83.9997 270.412 144.588
-87.4981 281.912 87.0817
38.7714 162.626 278.219
-1.64355 208.977 217.802
71.8079 282.568 81.9516
68.5661 270.587 145.755
110.476 253.098 146.709
-58.8834 279.412 -11.8228
-169.525 227.97 -29.796
157.643 216.426 -25.0993
49.7542 280.004 -5.86092
-57.0732 224.912 -188.609
-4.77105 262.901 -122.999
46.2196 222.508 -187.376
-272.289 203.948 -79.587
-284.203 190.958 -67.4948
-87.9877 147.815 -236.781
-167.821 188.556 -154.173
-336.722 131.094 -82.9887
-302.58 147.801 -130.966
-281.234 99.1939 -136.578
-301.626 146.35 -34.797
-302.539 29.9631 -38.1697
-330.547 129.795 -75.2605
-259.145 62.1024 63.8494
-267.464 -77.9248 183.949
119.24 199.284 171.736
156.659 201.497 84.5752
37.341 48.036 366.233
90.5692 127.782 275.64
210.3 11.7476 237.459
177.682 46.3934 266.75
185.272 -18.2026 306.996
-52.3482 -0.440331 408.642
-8.81706 16.0772 407.784
-206.524 -110.545 316.518
-158.472 -52.3112 359.266
-2.71163 -193.526 416.123
-70.2438 -139.274 412.065
-86.3224 -254.04 413.312
-280.981 -140.834 146.655
-255.003 -137.089 236.685
-282.081 -95.6387 -44.4562
-286.449 -109.272 36.586
-225.072 -274.103 164.881
-270.885 -215.56 109.717
-229.356 -252.329 71.7512
-191.752 13.1622 -152.357
-240.844 -53.9759 -110.158
-5.36152 135.418 -251.318
-70.4361 132.559 -233.612
-188.124 -137.183 -117.141
-115.014 -33.5401 -181.479
13.4551 10.6774 -138.948
157.991 179.788 -144.022
80.3314 144.737 -233.77
260.099 185.957 -62.5694
250.006 201.575 -80.7034
265.213 94.9266 -130.351
281.27 143.374 -124.786
313.267 115.104 -83.8055
206.011 -265.355 165.846
156.945 -293.625 273.039
117.253 -334.13 252.348
190.534 -100.07 311.897
183.043 -211.931 300.337
235.116 -137.074 227.53
39.0806 -335.661 390.67
110.908 -285.562 371.895
71.0476 -254.582 410.252
46.8425 -367.564 296.602
108.327 -323.072 167.852
-49.7206 -340.153 396.341
-5.94521 -392.036 342.967
-122.526 -316.05 180.292
-59.0585 -369.02 304.46
-128.407 -339.775 256.87
159.322 -275.921 68.7628
162.585 -279.377 33.6198
-177.012 -281.462 40.5456
-155.828 -263.571 68.9687
150.327 -193.91 -67.3081
3.21516 -204.646 -83.7877
-151.016 -190.644 -64.6431
187.2 -236.343 -25.1049
214.644 -245.202 65.0491
157.115 -140.765 -122.545
164.825 -194.362 -86.662
269.974 -92.5201 -41.7554
213.348 -158.27 -75.5292
236.399 -53.3928 -103.512
248.577 -212.895 107.133
287.459 20.043 -28.8727
276.596 -99.4265 18.0988
251.867 -141.141 153.625
244.089 -77.3762 177.271
57.2355 -138.655 409.984
148.339 -54.1913 354.03
38.2352 -2.08485 400.045
-174.943 -299.091 280.727
-127.94 -288.125 377.873
-203.531 -214.951 311.765
-179.252 -193.488 -90.3526
-196.793 -241.541 -27.4766
-223.606 -160.055 -79.5666
188.222 21.2753 -141.964
99.0892 -33.2978 -181.757
62.6735 138.771 -234.489
240.864 45.4054 58.0067
304.211 108.411 -76.1358
274.223 143.807 -35.4071
-174.406 231.39 102.267
-156.585 241.765 139.372
-142.368 261.029 127.961
-157.607 179.067 165.906
-162.669 221.778 148.518
-181.895 190.789 113.253
-118.629 250.451 166.681
-143.16 237.749 161.25
-126.65 220.144 185.432
-222.232 -36.0188 290.846
-219.034 -2.03722 277.277
-238.856 -25.059 254.668
-174.048 33.5272 307.429
-196.68 18.6335 296.163
-177.098 3.00193 326.494
-220.925 45.5826 211.115
-211.569 31.5242 259.218
-193.467 76.8809 227.231
-25.4544 114.237 309.814
-45.8754 97.6923 316.447
-31.5524 58.01 372.47
-93.4221 181.304 246.209
-75.8325 155.166 280.772
-72.8627 186.903 251.449
-87.9641 33.4467 361.718
-81.2813 82.8386 315.294
-122.982 60.9372 315.263
-158.568 128.168 217.786
-143.462 87.9717 273.83
-122.383 170.627 229.503
-117.913 275.025 128.174
-124.27 273.188 96.5543
-98.1886 256.163 164.523
-107.245 268.174 148.538
-66.6773 286.425 74.0127
-91.5867 279.406 121.73
-54.7739 276.621 113.16
14.061 115.812 309.602
-4.44412 161.607 280.154
52.0941 212.23 206.793
23.9109 184.841 257.04
57.5845 185.288 247.214
-34.3026 183.89 258.026
-64.7942 211.575 212.645
102.107 267.781 88.2584
97.8787 270.796 125.869
122.164 253.033 125.482
48.7597 277.228 113.854
74.2045 279.119 119.868
57.4436 287.241 74.2336
98.0226 246.719 164.774
87.3448 266.012 149.014
79.5928 255.848 164.116
-46.4234 246.911 167.88
41.8623 247.724 166.492
1.38493 265.447 143.083
-106.301 279.321 42.8588
-155.466 236.51 26.9454
-42.7871 284.561 35.171
-75.2898 291.128 40.7364
-133.425 242.063 -65.0169
-91.5786 274.805 -11.6412
-76.3599 273.069 -66.6847
145.821 223.78 18.1814
93.7213 276.703 39.063
66.8009 267.398 -62.4515
84.3351 271.62 -5.37502
135.323 226.99 -70.5075
64.9964 290.393 42.5533
36.6727 288.296 35.9797
-29.7703 205.43 -216.443
-3.81046 226.111 -193.173
21.5024 204.833 -216.397
-51.7373 258.228 -120.421
-30.3654 245.566 -158.442
-80.9372 238.935 -155.945
69.9081 234.172 -152.701
20.7369 244.146 -157.945
40.8452 255.68 -120.297
-3.3851 279.505 -14.2942
20.0769 276.028 -73.4622
-31.1948 276.603 -74.1409
-244.408 212.097 -60.7852
-204.764 199.888 -19.8406
-201.094 196.846 -70.7378
-242.097 212.477 -61.2159
-308.179 179.486 -74.4268
-278.206 200.037 -77.377
-302.55 189.557 -79.2372
-44.8915 163.225 -238.969
-72.8153 192.002 -217.187
-183.764 151.216 -166.306
-114.707 170.791 -208.921
-123.269 141.181 -219.112
-99.6797 211.529 -184.833
-137.693 216.109 -145.954
-324.159 100.475 -89.1543
-314.356 117.571 -112.334
-295.536 74.9817 -115.315
-328.687 160.484 -95.0082
-326.936 136.201 -107.071
-340.976 141.257 -81.2165
-263.596 110.7 -145.475
-293.357 127.753 -133.914
-272.307 132.862 -144.063
-238.702 187.613 -121.173
-259.4 167.621 -136.646
-288.503 184.941 -108.675
-220.776 172.079 14.0127
-318.965 156.916 -60.1975
-300.015 166.116 -47.4358
-232.564 153.367 18.4364
-241.409 124.115 32.3181
-304.774 36.3099 -62.6969
-328.255 106.971 -74.3774
-308.824 67.8744 -41.4876
-323.465 100.708 -69.3956
-298.154 3.50498 4.93719
-336.382 135.06 -81.2399
-338.553 140.198 -80.885
-249.777 -27.0771 218.988
-254.292 -65.6574 230.915
-241.3 68.5157 113.3
-243.018 16.0416 186.249
-278.225 -69.4913 121.967
-258.702 -21.9602 154.074
-279.794 7.67432 40.971
-318.48 135.706 -50.142
-303.457 110.197 -31.2588
-290.513 114.896 -17.1017
132.995 235.512 135.61
151.73 216.755 79.1758
102.792 214.535 182.625
120.802 233.291 156.808
167.699 165.182 99.793
137.137 216.217 144.365
138.298 156.88 171.594
14.5284 59.181 367.855
32.7294 101.307 312.998
114.395 59.514 308.128
71.3871 83.793 308.135
80.4626 32.4951 348.769
62.2749 151.942 277.104
78.7563 176.735 242.737
214.351 -20.3514 253.45
200.959 -2.38643 272.57
202.174 -34.1723 289.433
182.703 64.4253 228.804
196.317 30.436 254.063
201.668 41.704 213.466
163.746 -2.55474 320.183
182.495 16.0652 288.622
161.256 30.2333 299.779
107.542 159.793 230.108
132.549 81.8497 270.719
143.108 111.45 223.945
-31.8721 32.8231 396.383
-9.1179 39.6354 390.875
-87.3583 9.77667 378.414
-53.2778 21.7752 396.2
-8.8239 -6.66751 417.718
-33.191 6.69178 412.345
-32.3197 -14.7879 419.126
-230.516 -77.1628 290.811
-207.299 -53.3227 315.354
-149.221 -123.586 359.877
-184.46 -77.6449 340.658
-172.046 -164.213 336.45
-181.945 -32.2325 337.936
-152.028 -15.6381 351.699
-2.662 -253.982 416.856
-54.244 -236.25 417.553
-48.8388 -273.693 416.818
-33.3184 -81.7053 409.915
-47.1185 -164.525 415.248
-1.43674 -108.506 420.178
-105.35 -246.38 399.83
-77.9834 -223.067 409.355
-93.8451 -196.544 393.276
-99.8286 -26.6374 379.319
-101.92 -90.7778 385.426
-60.1859 -46.8423 409.931
-266.545 -104.572 208.51
-251.132 -95.6581 252.208
-283.31 -101.512 113.248
-279.564 -109.167 167.22
-249.638 -179.037 223.707
-274.651 -135.117 190.887
-265.978 -176.246 164.74
-290.542 -42.9495 -64.5394
-297.067 -50.4289 -36.4459
-270.203 -152.838 23.8016
-290.402 -99.9113 -15.1109
-261.579 -140.163 -23.8597
-297.868 -62.9804 -3.16162
-295.925 -78.2359 45.4549
-207.033 -290.176 146.74
-233.582 -265.297 117.721
-209.246 -280.027 101.426
-264.314 -220.242 142.224
-252.743 -244.113 130.89
-236.87 -249.741 182.781
-243.357 -224.945 37.4238
-254.022 -236.655 93.0649
-263.189 -209.632 67.7027
-283.544 -142.085 94.4203
-279.197 -177.694 88.0241
-282.684 -185.352 121.225
-261.879 35.5337 -122.755
-270.786 -8.98369 -98.7033
-201.337 86.6148 -150.805
-248.754 65.5833 -143.239
-202.416 -92.3713 -126.252
-222.572 -18.6138 -134.044
-177.203 -61.1521 -153.387
-4.19274 140.291 -255.564
-39.532 137.242 -248.649
-30.7388 101.261 -230.055
-33.2249 134.17 -245.467
-5.96843 121.492 -241.888
-81.1737 138.616 -237.143
-121.871 141.182 -221.387
-124.976 -151.122 -95.2148
-135.193 -86.9046 -121.993
3.90258 -122.285 -87.4806
-158.739 -82.1697 -166.243
-165.571 -90.8042 -164.507
-181.341 -133.671 -135.823
13.1787 78.6831 -230.539
-98.1441 -14.734 -185.622
-46.0658 38.8626 -205.798
-120.162 80.5938 -183.641
-74.3471 41.868 -199.639
[...]
POINT_DATA 642
SCALARS Mean_Curvature double 1
LOOKUP_TABLE default
0.0133443
0.0195987
0.0231175
0.0121144
0.00574273
0.00333508
0.120339
0.00999667
0.00285464
0.0093211
0.00439428
0.0102708
-0.00206929
0.00404358
-0.0115905
0.00147655
-0.0045012
0.00356458
0.000962706
-0.028103
0.0630711
0.0215629
0.00524436
0.000768117
0.00116766
0.0161256
0.00746906
0.00638671
-0.0268108
-0.018665
0.0600343
-0.044039
0.0043551
0.000645104
0.0245671
0.0178144
-0.00540797
-0.0138083
0.157665
-0.00514148
0.0100129
0.0188234
0.0209949
0.0108188
0.0209337
0.0116629
0.00929579
0.00568261
0.0101648
0.00808225
0.00960169
0.0149291
0.00206147
0.0140944
-0.000507707
0.00602386
0.0213447
0.019908
0.00193557
-0.00575797
-0.00718967
0.00409912
0.00984472
0.00861613
0.0105776
0.0259501
0.0026901
0.0292164
0.00408344
0.0443446
0.0311258
0.0131285
0.0150424
-0.00464835
-0.00767933
-0.00369255
0.000575402
-0.00010779
-0.00248162
0.00500416
0.00822348
0.00939613
0.0100606
0.0106671
0.0160146
0.0133261
0.00584513
0.0098655
0.000787477
0.0181305
0.0210495
0.00667977
0.00649139
0.0124897
-0.000124348
0.0123139
0.0155465
0.00231621
-0.000281424
0.00394434
0.0136194
-0.0064038
-0.0394533
-0.11175
-0.012553
0.00206628
0.034141
0.00827246
0.0360416
0.00771927
0.0214018
-0.0595838
0.00870358
0.00587426
0.00711973
0.00866587
0.0114994
0.00902092
0.00911044
0.0148621
0.0255697
0.00399255
0.105293
0.0151945
0.0425161
-0.0558227
-0.0137549
0.00817834
-0.0194854
-0.0314031
0.0461426
-0.0124482
-0.014154
-0.033238
-0.0105901
0.00515765
0.00526216
0.0317536
0.0880155
0.0146415
0.0117042
0.0136439
0.0187007
-0.00835031
0.0201061
0.00229675
0.00269453
0.0140311
0.0134552
0.0117588
0.00897244
0.0147842
0.0179187
0.0713034
0.00377253
0.00793663
-0.00299585
0.113417
-0.00722226
-0.00569058
-0.0294213
0.0102065
0.0134326
0.0206858
0.0198464
-0.00488445
0.0188581
-0.00478498
0.0213155
0.0205062
0.0188125
0.00680253
0.00756504
0.00925423
0.00871071
0.0104592
0.010527
0.00298347
0.00820318
0.00412908
0.00332324
-0.00553196
0.0153987
0.012772
0.0148039
0.0162543
0.00258085
-0.00367172
0.00368108
0.000450062
-0.00149055
0.00402313
0.0258426
0.00943426
0.0129149
0.0235426
0.0105744
0.0202461
0.0014795
0.00734154
0.00516639
0.000444659
0.0092221
0.0141146
0.00585571
0.00241121
0.00345814
0.0224102
0.0173155
0.00220698
0.0274849
0.0157159
0.0196763
0.0269727
0.0207276
-0.00191522
-0.00197346
0.00837359
0.0102493
0.00130032
0.000823254
0.0238264
0.00853385
0.00517646
0.0118338
-0.000851439
0.0129133
0.00712822
0.00538882
0.00306899
0.0242267
0.00778069
0.0118542
0.00853059
0.0143652
0.00438664
0.0062689
0.0112203
0.00895492
0.00654124
0.00451396
-0.00122863
0.0085865
0.00701103
-0.0641909
-0.0154316
-0.0233803
-0.0803854
-0.0102722
0.00813859
0.0659496
0.00696034
0.0116949
0.0116612
0.00692191
0.0773406
0.00967868
0.0105711
0.0185002
0.00698169
0.0143077
0.0320398
0.0368519
0.11702
0.0104077
0.0129915
0.0135251
0.0122378
0.0158714
0.0193171
-0.000357206
0.0136239
0.0131193
-1.00716e-05
-0.0057727
0.013846
0.080825
-0.0123719
0.0153884
-0.00259297
0.0152278
-0.0022749
0.00505195
0.00384263
0.00633975
0.00521278
0.00139191
-0.00103252
-0.00418454
0.0281767
0.00751858
0.00381178
0.0219127
0.00693193
0.0127417
0.0215844
-0.00230486
0.0119715
-0.00391169
0.0137596
-0.00364824
0.00540989
-0.00409443
0.00192248
0.0105965
0.00920956
0.00717826
0.00858033
0.0111176
0.00618209
0.0129708
0.00468798
0.00881275
0.0106644
0.00785405
0.00570712
0.000132709
0.000145735
0.0189466
0.0100406
0.00833083
0.0141798
0.0175346
0.0221222
0.0188013
0.0109719
0.00617202
0.00295257
0.00765698
-0.00375548
0.0114775
0.00777457
0.000465356
0.0083516
0.00481414
-0.00949477
0.00234567
0.0148002
0.00514027
0.0107201
-0.00619919
-0.00153929
-0.00210929
0.0136269
0.00554854
0.00871722
0.00247705
0.0115149
0.00296671
0.0136178
-0.00444066
0.014753
0.0109339
0.000601012
0.0153083
-0.00150378
0.00600101
0.0124422
0.0089766
0.0114281
0.00751027
0.0101118
0.0125114
0.00509158
0.00809085
0.0114709
0.00706063
0.00333623
0.00799038
0.019992
1.10025e-05
0.00524188
0.00256498
0.0121895
-0.000400565
0.00492612
0.000856071
0.0468499
0.0830283
0.0032325
-0.0242422
0.00251704
0.0956648
-0.0400171
0.00580379
-0.0100066
-0.00922656
-0.0448888
-0.0614679
-0.165781
0.0346058
-0.00699577
-0.0065895
-0.00710452
0.00257778
0.00736603
0.00895998
0.00936528
0.0090291
0.00908379
0.0126959
0.00224494
-0.0130845
-0.00681307
0.0064204
0.0787325
0.0156408
-0.019673
0.0482516
-0.0193184
0.0144259
0.0194102
0.00316104
0.0201868
0.0236832
0.0146493
0.0246381
0.0227242
0.0374348
0.0216827
0.0202698
0.0164171
0.00512193
0.00981225
0.0093614
0.0023029
0.012942
0.00670956
0.00931069
0.0105571
0.0106615
0.00628413
0.00727313
0.000188245
0.00931528
-0.000544913
-0.00171154
0.00501189
0.00466362
0.0047493
0.0152531
0.0196462
0.0109651
0.0109045
0.0141778
0.00689027
0.00409965
0.0228819
0.0066051
0.00737605
0.00857458
0.00443785
0.0146005
0.0050161
0.0370026
0.0163873
-0.0284784
0.0323545
0.000628447
0.0197621
0.0172194
0.0241362
0.0156962
0.00673847
0.01708
0.0166916
0.0101755
0.0245735
0.0140079
-0.00230411
0.00695324
0.00370016
0.0170485
0.0256768
0.048542
0.0397018
0.0372556
-0.0139267
-0.00874416
0.000450681
-0.00836337
0.0586404
-0.480026
-0.19217
-0.0243693
0.00442268
-0.0894674
-0.0122056
0.0835431
-0.201546
0.0551547
-0.00442729
-0.00913423
-0.0202337
-0.00295101
0.00524291
-0.0315731
0.0599653
-0.0141075
-0.0287266
0.0136389
-0.00722451
0.00225105
0.000868852
0.00282781
0.00286543
-0.167097
-0.0917392
0.00610634
0.00567504
0.0118071
0.00584029
0.00155192
0.0619511
-0.103374
0.137281
0.069806
0.281441
0.0150948
0.00876401
0.00977154
0.00823341
0.00394115
0.00535643
-0.00217429
0.000541454
0.0135382
0.0724184
0.0136423
0.00787399
0.0103868
0.00546393
0.0140056
0.0147834
0.0113688
0.00375604
0.0100409
0.0114426
0.00632973
0.0311019
0.015842
-0.00972387
0.00403234
0.0029696
0.0009236
0.0202067
0.00109071
0.00898417
-0.00124049
0.0131957
-0.00591737
0.00964343
0.0121324
-0.00465043
0.00135754
0.00481661
-0.000906258
0.0115814
0.0072123
0.0125017
0.0073264
0.00479445
0.0180141
0.0187404
0.022688
0.00897857
0.000128937
0.00279224
0.00528216
-0.00118605
0.00530953
0.0103108
0.0101063
0.00859379
0.00422263
0.0172488
0.0116125
0.0250131
0.0108932
0.00996426
0.00617897
0.00304294
0.00486973
-0.000720848
0.0139845
0.00833222
0.00555441
0.00653588
-0.0111397
-0.287849
0.0217961
0.101055
-0.00569345
0.00688756
0.00965365
0.00197127
-0.062452
0.327261
0.00730574
0.00536725
0.00235864
0.00507432
0.0087289
-0.100282
0.00459963
0.0201755
0.00252629
0.000448152
-0.00177806
0.00897396
-0.033657
-0.013298
-0.124047
-0.00724036
-0.11006
-0.033253
0.0987257
0.0514868
0.116675
-0.0342905
0.00062533
0.00828181
-0.00688578
-0.0104401
0.00333076
0.00253082
-0.000914228
0.00254528
0.00411489
-0.0766804
0.0632
0.480352
0.224226
-0.0355967
0.00447407
-0.00569552
0.00240397
0.0159526
0.0119947
0.00628022
0.0111982
0.00619645
SCALARS CoVolArea double 1
LOOKUP_TABLE default
2093.05
2001.27
1263.66
1546.68
1250.14
1407.63
1557.28
1467.14
1829.49
1221.91
1838.01
1082.81
6425.43
2075.85
1463.21
1312.32
2858.13
3103.51
3457.48
2141.88
421.782
2713.56
2092.91
5878.35
2691.8
1421.58
2239.95
2638.56
1374.56
1144.04
306.925
1604.21
2350.65
2841.34
1566.65
1753.46
5465.41
768.58
407.102
1501.06
2161.9
1955.88
1709.76
1775.69
627.415
1210.72
2265.1
1660.41
1673.55
2718.38
1684.97
1509.7
1191.75
1551.15
3499.54
1055.78
1158.09
608.281
2344.07
3399.2
3213.01
2319.24
1826.05
2196.57
1772.7
1363.87
1971.16
1247.06
2980.36
426.577
1257.68
1323.09
1589.89
2035.52
753.75
4886.91
2371.65
1999.35
2211.69
1980.8
2550.82
1348.4
1872.67
1048.88
1257.5
669.718
2449.69
2605.13
3281.9
2915.05
1007.4
1891.15
2092.54
1713.11
2372.61
1836.62
1213.31
1821.14
4591.13
2614
297.433
2554.04
2072.66
1131.15
13970.5
3765.82
1221.03
1368.16
878.85
1138.26
1260.53
332.82
1660.62
2208.19
1815.35
2238.32
2010.9
1725.25
1869.74
1662.69
856.683
1108.92
1000.81
1776.3
1117.57
1242.47
1226.48
1840.19
6489.57
637.552
519.655
7214.4
3314.87
8383.5
3481.93
1108.3
1663.72
1022.06
303.5
1444.85
1646.63
2258.28
1171.97
1623.65
1717.19
2457.46
2666.97
3042.8
1866.5
1664.85
2204.59
1844.28
1968.43
205.046
1120.93
1839.54
5073.31
977.772
3005.16
5331.41
1106.79
1460.76
2329.47
831.939
977.614
3106
1149.33
3924.71
782.164
732.663
1425.49
1272.77
1302.9
1388.17
1972.76
1174.61
1236.24
3513.44
1575.2
3247.12
2177.71
2073.98
1290.73
1695.09
1714.92
1377.42
2152.81
2762.6
2975.25
3444.42
3531.24
3039.84
835.329
2028.28
1378.35
573.74
1608.08
915.549
2684.46
2053.03
2021.28
2092.74
1945.18
1341.93
2080.01
2553.04
2225.3
911.812
1186.34
2397.01
772.726
1277.88
725.395
551.661
1050.71
3211.79
2739.93
2625.83
2966.11
3470.65
2461.21
1481.75
3649.46
3055.8
2773.53
3174.55
2595.36
3258.44
3179.08
3753.03
1244.18
2247.66
1775.02
1846.36
1709.2
2316.38
1990.83
2128.24
2237.6
1944.2
2505.92
3152.13
2842.09
2761.44
1596.48
3660.65
3983.13
1426.62
458.648
255.774
650.857
1643.43
1913.07
3295.05
2505.66
1313.13
2298.44
3603.77
1344.57
1037.13
1865.99
1086.19
701.709
284.223
1445.54
731.438
1859.72
3025.13
2305.01
1616.38
3341.55
585.446
1647.98
2659.22
5471.33
1924.24
676.87
2265.86
748.385
2010.06
89.8645
281.553
2259.74
1590.12
5381.32
3500.51
3471.83
5031.52
5671.71
699.593
2825.06
2481.8
936.792
1768.32
1448.63
740.972
5228.68
1943.23
4017.99
1357.51
2125.65
2735.78
2837.71
2428.32
1776.74
1740.13
1340.32
1067.4
1075.66
2876.2
1129.45
2539.98
1159.2
1079.05
1789.99
2914.99
3009.55
3200.44
734.152
830.724
1746.68
940.336
668.516
603.476
1162.07
1620.48
1554.79
4093.59
2280.69
2885.83
1325.33
1818.31
2104.06
2085.32
1493.96
2387.21
2794.41
2632.1
1128.55
1534.56
3423.29
2690.17
4237.46
2632.87
1529.72
1638.56
2395.33
1635.7
2461.15
1817.35
2318.01
2195.04
1909.88
2818.98
1937.68
2122.81
2395.95
2457.31
1762.69
1415.91
1524.57
1780.59
1350.63
2026.94
1702.91
1373.05
2005.55
2243.63
2089.37
1632.11
2331.92
2436.24
3794.77
2554.58
2361.81
3022.94
2542.04
1008.52
585.917
1920.46
605.959
856.22
328.296
2076.64
3482.29
9059.56
10843.7
916.63
1631.07
355.436
4630.26
5414.96
1478.49
5729.83
3674.01
3748.05
1894.18
1568.32
2965.11
2631.68
1449.09
2925.18
3694.34
2635.46
1431.73
527.479
311.987
458.242
1352.38
2315.45
1522.89
798.426
1169.02
1719.51
784.593
960.523
235.872
758.33
929.79
2347.08
1421.35
2593.72
1739.67
1934.83
1991.1
2457.97
1914.51
1760.23
1133.29
1674.89
1678.65
1488.46
2190.73
1710.43
2204.85
2504.55
3010.36
2026.51
2099.27
2377.92
1490.38
1480.25
1362.36
1905.97
1713.95
1949.5
1265.81
1022.13
1407.38
2599.14
2108.31
2355.83
1788.87
1641.28
962.923
1202.88
2417.3
1305.55
2893.06
1426.05
1597.22
1405.54
1648.89
1971.11
1706.6
1464.91
1342.79
1565.98
2058.58
3131.95
1472.75
3012.75
1260.9
1084.5
958.658
754.149
712.998
1691.21
714.923
1623.06
10495.8
1577.21
131.04
613.695
1808.01
1129.65
757.004
2221.15
1115.42
311.281
2750.12
11200
3716.25
7909.58
3737.94
2890
4932.99
1042.38
1409.95
4973.26
3049.33
14110.1
9031.66
9070.81
1689.98
1825.99
255.87
743.298
1535.04
1492.08
1493.85
2904.67
1050.74
646.641
297.837
255.136
453.265
74.0527
2000.42
1837.65
2010.49
1717.64
1723.22
1866.92
2452
1935.19
1595.17
739.327
1202.61
1554.2
1457.06
1978.04
1277.28
1218.71
1549.13
1978.12
1734.69
2148.33
1553.97
1350.24
1370.46
2436.37
1421.22
1851.83
1897.27
1338.13
2885.52
1733.53
2895.03
2034.5
3109.77
1942.51
1791.9
3401.85
1542.92
2313.91
1975.18
1169.58
1611.14
1006.35
1835.8
3404.06
830.2
1241.29
674.675
1223.78
2017.65
3811.03
2675.05
3120.14
2239.25
1886.85
1822.18
2116.95
2542.93
1543.62
1382.41
1181.31
1851.33
2121.57
2309.29
2501.11
2154.67
2225.88
1923.61
2421.23
2177.14
2625.75
1463.9
265.695
700.66
558.29
510.013
1592.04
1754.48
1698.72
699.855
191.824
2217.35
1627.04
2120.58
1905.54
1957.15
620.619
1679.55
1170.38
2040.1
3009.74
3045.5
2358.06
3162.36
7162.03
1026.79
3743.59
867.731
1102.9
508.291
1829.58
183.33
574.471
1950.52
4518.34
4214.85
6659.46
2438.05
4383.78
4804.26
3604.86
4961.91
540.337
426.736
107.795
568.991
1973.55
2102.2
4975.14
2693.61
1223.31
642.066
3053.53
1093.69
2923.36
SCALARS SignedDistance double 1
LOOKUP_TABLE default
47.9625
58.2905
54.4919
49.5256
42.6223
53.7877
179.957
36.9056
44.7595
49.8254
44.4213
46.8829
53.4446
50.1974
59.4212
59.2574
47.5052
45.1534
43.6188
57.8792
45.9246
50.793
49.7569
53.5464
46.2671
46.6487
48.0391
44.5104
76.4028
80.7186
47.6538
81.0409
47.5766
48.4534
39.6398
36.9882
103.495
67.1779
66.2342
62.5202
51.1605
50.4927
61.736
57.6931
42.3477
45.6246
48.4165
50.1777
48.9194
50.682
48.2688
47.1168
47.3685
47.6951
54.7882
47.1026
47.177
44.1608
46.872
54.8596
58.8006
47.3629
37.6097
41.7066
37.0743
53.1854
46.5632
45.6429
48.7778
51.1309
38.0207
42.1792
55.421
52.5189
49.3065
58.3669
50.5823
58.5772
60.1616
50.4028
50.2651
52.0094
48.9616
47.5145
44.3042
45.9658
45.6288
45.0876
44.9349
44.2873
44.5674
48.7919
47.1479
42.0547
53.5611
40.0465
42.7865
44.4162
50.9653
47.1117
51.3469
51.5533
59.9064
101.023
143.6
54.9991
47.8184
48.17
50.4377
43.2538
36.6633
53.3465
43.8374
43.1588
44.7889
46.6862
47.22
50.1547
34.9986
43.7813
46.7915
54.494
81.5063
32.0317
52.6765
72.0998
55.9178
46.386
60.4216
75.8868
78.4261
71.5673
62.0591
191.969
73.6438
47.7367
44.8638
65.7181
65.6327
42.8445
43.1913
45.9942
47.5663
60.6671
48.6202
52.0689
52.5323
45.1228
46.3411
47.6609
39.8933
39.4477
44.2163
71.3707
55.6337
42.0378
51.584
101.961
48.4406
68.2815
51.5821
56.1924
54.5544
44.8912
41.4439
57.2997
52.0818
60.9569
46.0111
46.7728
58.1279
47.6721
48.5774
48.2
47.3662
47.0457
46.3404
50.8803
48.6789
51.6741
64.9105
62.4989
50.668
47.0764
46.7366
46.3658
49.9399
56.7693
53.4233
52.6635
55.994
50.0459
42.2644
42.4662
48.1965
45.3868
49.294
46.8357
47.5022
64.975
48.8488
57.3898
47.9819
48.0293
47.8081
57.6587
44.942
42.6337
45.293
46.7823
46.5364
48.6934
46.669
43.7227
47.6068
50.6129
52.3026
47.2735
42.6453
50.4328
50.555
45.7297
44.5006
43.0408
41.7209
57.7351
45.0291
42.1473
44.6375
52.6953
44.2518
51.3964
35.1503
37.5454
34.8185
40.8489
39.5343
39.5153
39.6927
40.4769
40.3011
46.9919
43.3555
43.9576
72.7866
53.3234
54.0917
73.4249
43.0143
50.4022
45.6175
40.4435
34.8977
55.2788
37.1016
50.3501
36.8986
39.9275
43.5881
39.0628
41.4068
34.6584
41.4559
53.2486
49.7625
41.9008
48.3204
61.733
50.5944
39.1799
56.4092
45.8776
48.8267
56.9378
59.2467
47.7871
49.3261
52.0928
48.5294
59.3845
50.6011
51.2715
50.1935
50.8736
49.9911
50.8049
52.7872
53.6721
56.8351
54.4153
55.5623
56.4897
48.563
61.3403
58.358
49.5043
56.2317
56.2431
56.7003
51.2298
62.6909
52.2493
57.7477
51.7828
48.0824
48.9241
50.2934
49.8951
49.2723
52.9603
49.4835
53.2997
48.2423
48.418
49.1568
51.3823
55.6525
55.3615
47.2928
47.8846
49.8341
45.6442
44.549
44.8997
45.1885
46.2983
46.9033
49.2432
45.378
48.3574
45.4056
48.1429
42.8935
43.5921
42.845
52.2736
44.9833
51.9568
45.3736
46.7854
47.6316
51.8106
53.5808
49.1233
48.9429
48.449
49.9446
50.6427
46.3984
46.4258
51.1441
41.2192
47.3109
50.6594
46.0402
52.5756
48.1955
52.5937
42.7687
42.9805
45.774
43.5503
42.8889
43.4989
42.955
42.3429
44.6246
50.1727
48.6286
55.5238
45.9454
44.7036
56.9931
51.2626
47.3243
48.7045
57.9631
51.985
53.2777
64.6999
50.3263
53.2524
50.96
49.8836
94.9964
76.2008
171.653
85.8321
86.7619
78.1485
83.9973
114.446
118.199
77.2917
114.623
78.2951
36.8965
41.0679
50.4752
37.3575
72.4503
41.3947
68.3262
55.3494
59.5492
46.8741
48.5167
44.3964
61.5521
60.774
42.5299
41.659
49.0711
48.1033
40.8973
49.7495
53.657
39.9529
42.9624
57.5749
34.8005
45.1752
43.3201
42.9852
49.8831
46.729
42.2982
44.6
45.14
41.0684
43.5777
48.6352
49.0855
52.7695
45.7607
49.9755
51.6742
46.8233
47.74
46.6991
39.861
37.9612
43.0174
39.4856
35.1017
35.8378
47.4013
44.5078
48.5325
44.4057
43.2864
43.1215
61.9783
70.8572
51.9216
50.1834
63.2665
60.854
65.5857
40.6561
32.1524
52.099
31.4733
34.2256
32.4213
46.5004
64.8627
63.066
53.7703
71.5134
63.4551
72.8983
44.1634
56.2996
55.6479
55.5833
57.7958
54.5921
84.5676
67.6693
74.6009
89.489
61.6788
79.9768
59.8545
68.3422
74.2583
63.0618
81.2738
63.1058
81.515
94.6618
100.712
178.53
129.758
62.1305
100.032
60.8821
59.4973
115.784
74.5096
176.261
121.01
102.686
52.384
46.288
65.4753
62.0123
45.8659
45.0327
42.7103
71.4956
61.5288
58.1229
56.972
68.9111
67.2594
58.6978
43.7768
45.0085
45.6952
46.2202
49.9823
53.0754
47.3753
53.2967
44.8508
59.5872
51.4344
43.9511
44.3065
48.6288
43.8111
43.449
46.1947
51.8597
48.4224
49.1803
49.4165
55.8863
46.8315
55.6852
52.1024
51.6328
54.8424
50.4373
54.6513
51.7656
54.4921
51.7714
55.0377
52.3103
46.816
47.4996
48.2385
46.2829
56.0064
47.1734
48.3496
46.8441
46.856
49.153
46.9945
45.2759
45.1147
47.9676
51.1647
54.9247
51.8899
54.1225
42.7487
39.6667
40.8315
42.8331
44.0224
38.4428
46.3768
44.7633
33.9542
35.728
44.3885
46.1033
47.146
50.2107
44.9111
39.9944
43.2037
41.7791
69.9696
64.6413
70.65
76.0234
74.8076
60.7864
41.6744
46.1596
63.5022
67.6532
44.6574
51.4491
45.4616
47.5754
44.0394
64.5361
44.9892
64.1651
44.8468
48.7411
52.3731
45.7825
68.3971
62.6647
121.509
107.123
79.7055
79.7113
52.6646
72.5683
47.632
50.093
64.7865
77.9083
118.223
70.3373
54.5034
56.4944
54.8806
53.5507
54.3952
56.7891
54.5357
53.5928
55.27
57.2395
58.8222
59.7004
58.0784
51.5521
47.7247
54.943
54.8234
56.2387
