# vtk DataFile Version 4.2
vtk output
ASCII
DATASET POLYDATA
POINTS 642 double
-303.48 455.267 95.0668
299.018 449.923 93.3323
-303.374 -520.865 102.86
298.909 -516.783 103.943
-0.929896 -359.231 618.737
-1.05663 252.963 575.684
-0.335879 -315.54 -349.349
-0.427318 285.532 -416.077
494.093 -19.8841 -207.681
468.839 -36.3386 392.048
-501.812 -19.3427 -211.037
-477.549 -36.4668 395.55
-440.679 245.651 259.898
-277.61 134.566 551.715
-174.402 424.056 371.551
171.34 421.617 370.103
-0.347843 539.943 94.7756
181.118 441.263 -200.333
-183.178 444.03 -201.977
-301.231 152.899 -381.248
-497.165 273.736 -92.5509
-564.011 -29.6115 89.9161
274.788 132.667 547.614
434.325 240.034 258.069
-288.539 -225.164 575.218
-0.546384 -35.2487 673.442
-460.453 -317.591 -76.6597
-462.463 -323.498 277.559
-0.957067 -19.4429 -484.203
-284.765 -204.906 -356.316
488.502 269.257 -89.803
298.058 152.633 -380.01
455.368 -320.26 275.104
283.231 -224.362 571.189
182.635 -524.181 404.755
-184.524 -526.704 406.482
-1.23395 -605.646 116.902
-176.922 -484.488 -180.856
175.037 -481.882 -179.304
282.424 -204.59 -353.238
455.358 -314.583 -76.1663
557.809 -29.7024 89.2715
-392.646 366.599 180.787
-326.074 358.269 328.528
-247.061 462.719 243.302
-393.026 53.4838 488.939
-379.847 196.449 424.227
-476.609 106.648 341.09
-89.6495 350.765 484.628
-231.621 291.071 476.695
-142.192 203.692 584.923
-97.0372 511.406 243.933
-156.705 523.166 96.7107
87.7306 349.774 483.306
-0.346777 439.997 384.357
155.089 522.187 95.8587
94.7266 509.88 243.572
242.974 458.436 241.923
-94.6489 521.355 -58.2282
-257.397 463.067 -58.6624
255.59 462.15 -57.4089
93.2046 519.069 -57.149
-95.8105 383.55 -326.011
-0.648811 470.462 -218.965
94.2297 382.444 -325.031
-360.348 381.881 -159.765
-419.984 384.489 -7.9822
-154.411 229.764 -420.502
-255.152 317.842 -311.857
-530.023 130.372 -168.958
-423.928 227.493 -260.483
-423.913 72.8682 -315.787
-503.053 276.732 82.7566
-558.408 -18.7468 -67.7289
-575.327 131.249 -8.93135
-527.983 118.461 170.737
-536.769 -39.1676 251.779
319.707 353.533 325.904
386.141 360.683 177.101
139.392 202.219 581.707
228.65 288.629 474.011
469.013 105.53 338.357
375.124 193.931 420.935
387.807 52.1589 485.345
-145.901 58.378 642.565
-0.934551 118.679 648.059
-395.571 -130.287 493.927
-297.413 -35.6664 580.714
-0.672305 -205.89 661.507
-150.073 -138.524 647.011
-155.276 -299.488 619.252
-538.927 -184.951 190.212
-488.26 -184.284 345.549
-494.804 -178.532 -150.706
-540.138 -181.257 4.56711
-399.6 -439.731 193.935
-488.198 -337.149 99.7452
-397.756 -433.753 10.211
-304.803 -21.7164 -385.624
-404.507 -118.168 -297.475
-0.485107 133.63 -481.968
-152.603 72.9402 -466.234
-151.031 -273.622 -381.683
-148.864 -115.792 -438.152
0.16798 -162.974 -422.78
252.101 314.236 -309.189
152.661 228.618 -418.519
413.459 380.015 -6.21515
355.208 377.805 -157.224
419.156 70.332 -312.263
417.333 224.316 -256.016
517.806 126.947 -163.467
394.376 -435.54 193.251
336.847 -440.042 351.741
248.249 -540.965 260.703
390.981 -127.752 489.418
389.372 -282.697 439.217
480.414 -182.157 341.926
95.3464 -461.952 530.823
249.062 -389.116 513.669
154.022 -298.738 617.932
94.2466 -605.029 264.835
152.634 -581.121 109.774
-96.9801 -463.324 532.414
-0.48792 -558.53 426.103
-154.374 -583.871 109.906
-95.3091 -606.82 264.92
-251.837 -544.971 261.389
100.317 -555.772 -41.0064
245.32 -514.361 -44.7827
-247.247 -517.555 -44.5954
-102.331 -556.032 -40.7149
100.407 -411.788 -284.506
-0.230276 -477.817 -179.754
-102.283 -411.797 -284.943
332.234 -419.429 -139.581
392.528 -429.343 10.0465
148.944 -272.733 -378.672
239.727 -360.017 -285.268
489.936 -177.225 -148.637
389.369 -270.955 -232.519
400.944 -117.827 -294.586
480.205 -333.209 99.5465
548.926 -20.4331 -64.6561
535.157 -179.04 2.87652
528.437 -182.893 189.845
526.473 -39.5675 248.459
147.958 -138.181 645.385
294.837 -35.6662 577.535
143.128 57.5835 639.013
-342.247 -443.49 354.105
-252.071 -391.505 516.385
-395.939 -285.302 443.434
-240.866 -361.564 -287.12
-335.066 -421.701 -140.718
-392.827 -272.482 -234.83
303.703 -21.0295 -383.299
145.799 -115.731 -434.345
150.489 73.6187 -464.214
518.854 114.947 169.579
561.103 127.862 -7.75896
493.42 272.759 82.7689
-352.339 415.592 137.656
-322.87 422.018 216.441
-276.384 465.593 172.062
-388.462 308.286 298.495
-361.657 367.691 260.597
-422.774 311.364 220.089
-212.775 448.98 310.068
-290.453 414.764 289.342
-253.754 397.286 353.29
-439.293 9.08011 445.597
-441.138 81.5285 418.744
-481.758 36.2261 370.778
-334.305 167.385 492.113
-390.225 127.304 460.499
-339.25 95.4622 524.152
-462.712 174.376 305.516
-432.499 153.975 385.848
-414.517 222.259 347.507
-45.3537 303.181 532.035
-115.931 278.864 538.077
-72.3306 231.365 585.874
-204.28 361.825 427.332
-162.499 325.491 484.48
-132.486 389.883 430.506
-210.703 170.936 572.678
-188.835 247.979 532.651
-256.554 213.377 519.134
-352.932 279.118 376.143
-308.951 246.87 453.987
-281.043 328.352 405.042
-206.039 500.348 172.191
-230.801 495.446 97.6564
-138.36 474.95 310.518
-173.137 493.284 245.893
-81.8805 540.39 95.3597
-127.89 523.766 171.778
-50.7444 531.852 169.849
43.3899 302.77 531.288
-0.856221 353.991 488.757
88.2541 437.092 381.526
45.3455 399.152 437.707
130.144 388.332 428.948
-46.8636 399.448 438.267
-90.2576 437.525 382.286
226.756 492.243 96.4963
202.632 496.708 170.819
271.641 460.767 170.977
49.5025 532.785 169.844
125.443 521.555 170.644
80.8221 539.434 95.3923
209.232 445.502 308.414
170.368 490.222 245.004
135.515 472.801 309.797
-49.2452 482.715 316.882
48.1834 483.619 317.573
-0.402077 512.97 244.384
-205.47 502.303 20.0157
-283.774 461.504 16.2391
-49.4511 539.412 18.1733
-126.526 527.82 19.1701
-222.456 457.56 -131.876
-173.478 499.696 -59.0256
-139.333 489.28 -132.391
280.258 458.507 14.8808
203.668 500.253 19.7434
137.537 486.753 -131.462
172.991 497.196 -57.5262
220.416 453.876 -129.471
125.69 526.578 20.1378
48.3108 538.9 18.625
-48.6428 338.69 -376.055
-0.480717 388.914 -332.021
47.5538 338.313 -375.658
-92.0557 463.595 -214.701
-48.4946 432.44 -275.859
-140.423 419.114 -267.584
138.218 417.079 -266.118
47.2567 431.958 -275.575
90.421 462.074 -214.042
-0.965456 528.661 -60.5137
46.8896 501.612 -140.692
-48.593 502.824 -140.953
-348.813 433.777 -36.9646
-364.593 418.165 38.2984
-276.529 415.386 -182.284
-316.398 430.37 -111.946
-465.233 336.489 -50.6175
-396.668 390.466 -83.6033
-434.274 333.702 -128.829
-78.2937 260.72 -423.828
-126.778 311.863 -380.53
-281.179 238.223 -351.806
-205.303 277.587 -372.905
-227.629 192.293 -406.433
-175.474 355.544 -325.031
-222.352 387.504 -261.689
-521.089 57.0717 -193.997
-485.349 103.058 -249.249
-468.746 28.0125 -267.224
-466.931 254.197 -180.967
-481.927 180.326 -218.001
-518.388 202.901 -132.269
-371.071 115.481 -355.681
-430.893 150.28 -295.369
-370.33 192.584 -327.632
-315.506 356.344 -241.851
-347.851 278.507 -291.77
-398.006 310.837 -215.184
-410.55 375.993 83.6911
-509.563 282.032 -4.28623
-467.766 333.983 36.7765
-450.429 321.189 128.243
-476.138 263.864 165.708
-536.92 -19.3834 -140.85
-555.399 57.3579 -118.905
-573.513 59.4417 34.487
-576.015 60.2509 -40.2094
-563.013 -20.8164 10.6817
-561.837 133.451 -88.0516
-546.672 203.991 -52.263
-512.512 35.4466 300.019
-512.049 -37.4497 325.816
-490.37 180.861 215.503
-504.538 109.556 263.278
-553.005 -37.5627 172.674
-534.188 38.0165 217.753
-550.711 47.7164 128.874
-546.743 207.183 37.3757
-565.163 132.108 79.4709
-529.593 202.042 124.291
317.059 416.812 214.81
347.392 409.643 135.113
249.337 393.465 350.966
285.323 410.256 287.066
414.922 304.875 215.631
354.321 362.989 257.839
380.073 301.699 295.737
70.0073 230.497 584.253
113.721 277.761 535.93
253.677 211.502 515.441
186.34 246.449 529.382
207.885 169.184 568.261
160.134 323.697 482.249
201.073 359.159 425.314
473.33 35.9066 367.83
434.554 80.1436 415.324
432.652 8.87615 442.375
409.529 218.249 345.952
426.522 152.152 382.635
456.073 171.622 304.067
335.089 93.6162 520.399
384.991 125.395 456.751
330.154 165.293 488.307
276.779 324.473 402.665
305.243 244.148 451.156
347.983 274.618 374.462
-73.2688 164.945 624.217
-1.01204 188.651 617.359
-213.424 98.7459 602.87
-146.197 133.129 619.498
-0.904151 44.2838 667.205
-74.6752 89.4406 652.143
-74.7604 13.3672 666.499
-442.806 -81.235 447.453
-401.185 -35.5692 496.103
-293.449 -132.383 576.812
-350.909 -83.5106 541.636
-345.852 -180.291 537.085
-349.189 9.90696 539.375
-291.908 51.5762 571.937
-0.721541 -284.908 649.153
-79.0891 -257.412 650.983
-78.2729 -332.992 624.615
-75.2962 -85.1282 668.938
-77.7956 -172.195 660.288
-0.482928 -118.354 671.03
-226.899 -264.108 605.496
-156.938 -223.455 643.19
-221.489 -186.959 619.525
-223.622 11.3509 616.872
-225.323 -87.0044 620.493
-148.728 -35.5486 650.835
-521.685 -110.751 300.913
-488.146 -110.018 372.628
-555.532 -111.364 143.789
-545.972 -112.151 223.062
-479.676 -256.179 314.203
-518.738 -185.39 268.814
-507.466 -256.13 234.447
-499.462 -100.258 -181.529
-531.8 -101.08 -110.136
-506.314 -251.544 -37.6613
-523.989 -181.32 -76.0054
-480.876 -249.366 -115.821
-552.607 -104.689 -32.2837
-560.429 -108.802 47.6962
-355.14 -485.299 148.887
-405.473 -443.029 100.699
-354.554 -481.706 55.8265
-481.838 -334.233 187.863
-449.644 -391.383 146.074
-435.728 -385.135 237.195
-433.228 -378.782 -34.4185
-448.315 -389.404 54.5104
-479.778 -331.524 11.7563
-549.165 -187.658 97.7609
-521.487 -263.049 53.2084
-522.419 -264.421 145.098
-419.415 -20.2149 -310.865
-454.766 -68.7177 -257.373
-309.258 69.3228 -392.387
-370.271 27.7327 -356.532
-346.855 -164.265 -330.867
-359.611 -70.6388 -345.293
-298.064 -117.633 -376.425
-0.473765 211.691 -453.474
-77.7821 183.89 -457.651
-75.1477 27.845 -483.057
-78.1378 103.391 -482.311
-0.557464 57.5083 -491.068
-156.66 149.39 -450.839
-228.405 115.046 -433.406
-87.8129 -296.167 -371.587
-85.6159 -225.072 -406.484
-0.206462 -242.119 -388.634
-218.763 -164.392 -401.685
-153.128 -198.281 -412.233
-217.222 -241.417 -373.231
-0.709969 -89.7391 -464.718
-79.094 -139.566 -437.51
-73.3117 -64.6242 -467.597
[...]
POINT_DATA 642
SCALARS Mean_Curvature double 1
LOOKUP_TABLE default
0.00319187
0.00235073
0.00417177
0.00377122
0.00506198
0.00410968
-0.00267096
0.00444691
0.00357763
0.00401091
0.00414068
0.00423167
0.000164251
0.00317038
0.00360346
0.00362936
0.00150843
0.00312212
0.00318801
0.0021681
0.00392553
0.00292326
0.00325792
0.000402188
0.00438365
0.00292291
0.00324154
0.0029423
0.00483311
0.00321913
0.00401995
0.00300212
0.00311831
0.00458273
0.00350428
0.00357594
0.00331084
0.00492379
0.00398101
0.00333165
0.00334468
0.00382064
0.0024168
0.00393739
0.00409455
0.00369583
0.00338164
0.00354221
0.00364648
0.00289523
0.00389907
0.00445329
0.0033443
0.00361018
0.00166031
0.0040841
0.00424851
0.00409466
0.00349561
0.000717881
0.00206198
0.00298888
0.0037642
0.00389462
0.00380309
0.00394929
0.0052374
0.00362157
0.00154847
0.00559508
0.00394378
0.00402785
0.00503848
0.00280256
0.00677717
0.000184551
0.00293942
0.00373077
0.00185483
0.00364556
0.00296053
0.00364222
0.0034658
0.00373562
0.004217
0.00405326
0.00183851
0.00336642
0.00229591
0.00159052
0.0034142
0.00309123
0.00294289
0.00365386
0.00231626
0.00295113
0.00398743
0.00335907
0.000886579
0.0029379
0.00477344
0.00488529
0.00584676
0.00359134
-0.00236402
0.00118678
0.00354616
0.00483177
0.00380298
0.00484474
0.00398325
0.00418265
0.00327989
0.00345952
0.00313647
0.00269306
0.00332109
0.00300926
0.00392379
0.00386699
0.00418358
0.00444495
0.00222613
0.00405163
0.00376089
0.00228863
0.00446155
0.00382049
0.00337852
0.00298044
0.00264818
0.00279387
0.00386699
-0.00471832
0.00344412
0.00378304
0.00328236
0.00489474
0.0035544
0.00368621
0.00359331
0.00324678
0.00399961
0.00202826
0.00362103
0.00307797
0.00264059
0.00205293
0.00379931
0.00400383
0.00354291
0.00377287
0.00319264
0.00328946
0.00371369
0.00356499
0.0017883
0.00285721
0.00526812
4.26754e-05
0.00579506
0.00476108
0.00243524
0.00393913
0.00402268
0.00367341
0.00416637
0.00279009
0.00420252
0.00417374
0.00377367
0.00354906
0.00365243
0.00358517
0.0035608
0.00372127
0.00368311
0.00293298
0.00362765
0.00239027
0.00246173
0.00248361
0.00400393
0.00303088
0.00343872
0.00310651
0.00328631
0.00226754
0.00267979
0.0016921
0.00251127
0.00276808
0.00411846
0.003351
0.00425322
0.00416983
0.00499066
0.00402071
0.00272849
0.00249528
0.0029397
0.00328966
0.00322074
0.00306419
0.00315711
0.00311034
0.00316339
0.00391009
0.00388169
0.0036487
0.00354666
0.00483027
0.00417338
0.00418063
0.00410677
0.00325502
0.00415754
0.00206059
0.00336467
0.000372889
0.0034206
0.00345023
0.00154866
0.00293507
0.0034579
0.000258971
0.00360998
0.00339515
0.00287576
0.000679247
0.00363053
0.00349665
0.0038037
0.00379192
0.00392914
0.00337993
0.00362707
0.00378981
0.00371692
0.00378917
0.00339022
0.0035384
0.00328127
0.00339893
0.00657106
0.0019515
0.0030649
0.00473356
0.00586648
0.00472871
0.00350508
0.00373021
0.00380476
0.00121698
0.00373748
0.00299172
0.0037698
0.00241774
0.00392533
0.00587452
0.00373722
0.00389309
0.00353948
0.00296627
0.00623599
0.00452086
0.00413594
0.00426325
0.00435545
0.00396797
0.00224166
0.00474962
0.00460307
0.00238602
0.00238897
0.00315711
0.00437474
0.00389482
0.00616269
-0.00030769
0.00578211
0.00529412
0.00339259
0.00342597
-0.000239795
0.00263499
0.00242166
0.00188116
-0.000312863
0.00413117
0.00652976
0.00525273
0.00387873
0.00189441
0.00367569
0.004187
0.00167367
0.00426419
0.00252264
0.00389243
0.00244855
0.00274881
0.00227363
0.00297667
0.00344167
0.00305125
0.00363458
0.00364354
0.00382148
0.00294442
0.00371019
0.00332553
0.00364151
0.00365975
0.00351047
0.00268146
0.00269779
0.00195644
0.00424945
0.00408754
0.00343525
0.00410945
0.00416383
0.004228
0.00410348
0.00386653
0.00363667
0.000592994
0.00325377
0.00376888
0.00372917
0.00339489
0.00476225
0.00444505
0.00401151
0.0036917
0.00191426
0.00254616
0.00574862
0.00584523
0.00356056
0.00293801
0.00265034
0.00296992
0.00397962
0.00348402
0.00230469
0.00476266
0.00289931
0.0028906
0.00323087
0.00231403
0.00246377
0.00241961
0.00391623
0.00305166
0.00336661
0.0033129
0.00313606
0.00410251
0.00385482
0.00359435
0.00382264
0.0028963
0.00325213
0.00380992
0.00348993
0.00436715
0.00370588
0.00403358
0.00382291
0.00178332
0.00290306
0.00400699
0.00307942
0.00205218
0.00329404
0.00361998
0.00303361
0.00401089
0.00555008
0.0049856
0.0035003
0.00542183
0.00314748
0.00341908
-0.00142358
0.00297295
0.00436931
0.0028891
0.00495121
0.00132563
0.00421343
0.00248014
0.00213029
0.00216753
0.00373671
0.003814
0.00204183
0.00377636
0.00257518
0.00353677
0.00244931
0.00324131
0.00632245
0.00345955
0.00475895
0.00580848
0.00430945
0.00421919
0.00443081
0.00477096
0.0049267
0.00400083
0.00420047
0.0046344
0.00329655
0.00387014
0.00386183
0.00414887
0.00396822
0.00423204
0.00304955
0.00296528
0.00323428
0.00308631
0.00290486
0.00330668
0.00437237
0.00410333
0.00403548
0.00347239
0.00251871
0.00362046
0.00357747
0.00350182
0.00162857
0.0029102
0.00336177
0.00330619
0.00422389
0.00346475
0.00323927
0.00373199
0.00368523
0.00369499
0.00523999
0.00383922
0.00421771
0.00322516
0.00374659
0.00388838
0.0021883
0.00286806
0.00297264
0.00589377
0.00378922
0.00350437
0.00365299
0.00411209
0.00410739
0.00383021
0.00418328
0.00383915
0.00434073
0.00378393
0.00250404
0.00264721
0.00221276
0.00389199
0.00368565
0.00416833
0.00402622
0.00528646
0.00313361
0.00480433
0.00480257
0.00618187
0.00274125
0.00328372
0.00154139
0.00432189
0.00313826
0.00334164
0.00540991
0.00357312
0.00306301
0.00509629
0.00450662
0.00284132
0.00386286
0.00156101
0.00489133
-0.00463492
0.0047437
0.00421406
0.00504844
0.00583144
0.00558108
0.00490482
0.00378627
-0.00306529
0.00361747
0.00373514
0.00315768
0.00360242
0.00358632
0.00366235
0.00327582
0.00355356
0.00372202
0.00377666
0.0053185
0.00379951
0.00327441
0.00323928
0.00446445
0.0032141
0.0027586
0.00361826
0.00177481
0.00350252
0.00321184
0.00318289
0.00291969
0.00310428
0.00361388
0.00371016
0.00373819
0.00370846
0.00380495
0.00315119
0.0038264
0.0036448
0.00345098
0.00258601
0.00297364
0.00404501
0.00368973
0.000430267
0.00391304
0.00261569
0.00431243
0.00282055
0.00326549
0.00326646
0.00234772
0.00444197
0.00186277
0.0034624
0.00236201
0.00421945
0.0048148
0.00290909
0.00587
0.00155886
0.00438574
0.00385601
0.00361909
0.00389463
0.00349438
0.00130603
0.00428479
0.00405099
0.00428179
0.00400582
0.00303161
0.00267755
0.00293999
0.00233872
0.00313619
0.00392361
0.00379365
0.00315234
0.0032507
0.00368755
0.00389701
0.00364134
0.00374583
0.00371353
0.00223825
0.00335168
0.00360544
0.00402265
0.00340027
0.0037973
0.00379765
0.00343636
0.00526989
0.00305877
0.00540673
0.00348208
0.00359724
0.0031084
0.00359796
0.00334713
0.00345421
0.00339521
0.00344749
0.00352834
0.0031882
0.00322534
0.00346484
0.00364751
0.00368139
0.00369558
0.00350555
0.00294809
0.00206119
0.00422021
0.00378439
0.00407292
0.00363545
0.00280506
0.00375842
0.00299261
0.0029902
0.00543562
0.00365153
0.0055722
0.00419988
0.00206038
0.00153781
0.00147328
0.003227
0.0014565
0.00136754
0.00279011
-0.000223121
0.00494304
0.00568137
0.00503214
0.00640076
0.00334283
0.00351612
0.00279205
0.00352094
0.00425407
0.00467614
0.00533355
0.00439539
0.00505087
SCALARS CoVolArea double 1
LOOKUP_TABLE default
5536.09
5526.26
5258.43
5185.95
5521.78
4901.21
5613.03
5500.73
5274.93
4831.53
5420.68
4916.4
7263.19
6433.79
6313.33
6240.8
6817.16
7193.2
7226.15
7200.3
7193.91
7195.85
6356.55
7141.37
6694.32
6685.74
6675.95
6850.96
6245.66
6573.97
6945.18
7043.34
6665.24
6659.88
7233.65
7292.73
6662.69
6032.84
6011.41
6485.14
6548.46
6787.6
6577.15
6594.5
6000.13
5973.72
6747.6
6021.19
6096.94
6875.49
6000.01
6749
6272.32
6069.73
6907.09
6156.44
6704.7
5911.1
7164.45
6993.45
6747.43
7224.43
6706.43
7299.43
6660.31
7386.69
6237.47
6815.54
7853.11
6624.69
7537.57
6356.65
6774.82
6616.83
6587.3
7531.14
6207.64
6528.77
6473.21
5991.1
6764.72
5825.45
6557.7
5828.49
6729.95
5924.53
6506.68
7136.11
6764.78
7398.7
6640.69
6841.29
6357.07
6435.11
7059.45
6534.65
6799.62
6240.57
7627.6
6583.18
6541.63
6988.36
5564.41
7081.21
7101.04
7749.03
6797.65
6056.1
7253.27
6254.06
7347.5
6483.46
6390.99
7162.6
6440.33
6372.08
7005.49
6156.65
6942.92
7335.78
6551.67
7090.52
6551.8
6969.32
7668.89
6574.42
7131.83
6542.1
6959.4
6212.91
6273.79
7019.2
5792.35
7536.46
5827.06
6612.65
6157.24
5616.63
6579.6
6261.98
6731.12
6480.74
6680.13
6504.21
6774.17
6789.42
6144.35
7326.53
6930.54
6736.51
7287.56
7472.93
7142.18
6671.07
6740.39
6826.56
7396.08
7163.17
6950.99
7381.17
6423.2
6520.39
6544.51
6298.18
6192.94
6873.65
6142.07
6437.11
5828.63
5934.82
6511.96
5888.66
5988.36
5864.48
6590.9
5950.81
5902.22
6512.6
6032.59
6978.82
6040.6
6194.92
5842.25
6634.45
6183.62
5972.05
6006.1
6259.76
6768.02
7735.56
7728.67
7637.93
6200.83
6482.46
6507.14
6037.29
6213.27
6180.79
6961.07
6034.14
6205.45
6602.69
6193.23
5917.71
6220.8
6693.26
6417.29
6143.2
6177.25
6923.3
6143.87
6143.35
5754.35
6009.45
6431.7
7614.28
7539.94
7770.9
6871.61
6855.22
7045.82
6451.56
6887.55
6891.91
7346.56
6692.95
6677.21
7369.72
6827.28
6820.15
6391.24
7045.45
6611.71
6769.53
6584.6
7286.01
6727.67
6676.02
6635.25
6696.98
7251.8
8019.14
8101.28
8089.54
6513.04
6534.63
7455.69
6687.2
6395.84
6463.55
7476.81
6657.17
6798.88
7805.53
7064.83
6871.69
6962.69
7612.63
6335.62
6563.19
6394.78
7628.08
6914.79
6818.49
6371.48
6651.6
7446.66
8433.1
8510.31
8384.11
6637.06
7025.98
6388.8
6497.25
7168.82
6454.05
6452.71
6902.2
6254.13
6722.3
6478.22
7154.01
6238.1
5926.32
7618
6782.83
6595.28
6954.98
7538.25
7482.61
7505.71
7656.4
6225.49
6457.08
6427.97
5816.92
6424.46
6129.75
6889.55
5832.75
6172.22
6668.61
6211.79
5996.04
6120.4
6555.34
5743.75
5835
5735.82
6780.63
5827.49
6253.66
5780.81
5835.74
6470.58
7527.79
7555.86
7588.19
5935.12
5731.77
6664.34
5977.21
5983.58
6016.82
6765.2
6144.16
6244.26
7320.98
6535.44
6396.36
6171.92
6711.09
6477.45
6642.6
6627.3
7221.69
6835.39
6705
6265.56
6460.3
7085.36
7819.88
8272.47
7996.53
6158.46
6083.58
6957.62
6184.86
6364.05
6328.85
6945.28
6608.58
6691.13
7007.34
6492.59
6252.04
6784.44
7224.37
6370.49
6336.21
6124.87
6905.59
6359.06
6448
6181.83
6249.96
6865.24
7655.15
7689.73
7601.56
6602.76
6597.33
7266.86
6615.1
6326.28
6761
7223.89
6656.98
6824.74
6731.42
6418.8
6061.21
6673.86
7168.86
6073.67
6558.24
7167.41
6931.78
6089.07
5952.59
6118.43
6561.17
6724.36
8221.49
7993.29
8299.76
6765.8
6624.09
7557.53
6928
6752.86
6989.89
7583.99
6366.44
6335.13
7294.53
6358.82
6240.3
6570.95
7355.38
6197.24
6450.09
6162.47
7302.36
6581.46
6326.15
6595.96
6746.64
7390.18
8302.91
8217.19
8329.39
6264.27
6594.23
6423.82
7051.46
6557.84
6267.76
6453.22
6523.26
7209.21
5967.59
6364.75
5930.02
6918.23
6430.66
6448.82
6191.8
6350.77
6951.03
6800.95
6986.93
6636.88
7391.16
6936.81
6838.95
6127.79
6742.05
6969.66
7976.5
7963.77
8084.2
6653.73
6432.31
7367.48
6457.61
6226.97
6478.9
6853.93
6789.01
7026.42
7636.07
7048.41
6878.71
7024.08
7609.28
6533.2
6718.06
6566.98
6824.6
6478.88
6190.97
6572.15
6551.9
7432.64
8309.75
8324.75
7898.77
6433.81
6165.1
7401.62
6273.55
5921.29
6079.62
6206.8
6198.55
6455.33
6239.66
6074.99
5978.65
6292.17
7420.19
6154.04
6832.83
6195.71
6389.57
6403.33
5406.7
5419.87
6448.38
6449.26
8828.21
8152.29
8094.72
6247.4
6097.79
6548.42
6128.04
6064.92
6160.36
6633.37
6024.47
5543.62
6548.71
5899.48
5906.37
5701.14
6448.49
6443.68
6463.78
6453.17
6691.16
6239.37
6112.04
6261.99
6306.65
6656.08
7392.22
7396.18
7432.71
6244.41
6753.38
6157.26
6209.84
6707.44
6322.16
6523.22
6921.88
6471.37
6426.2
6231.43
6816.12
5969.98
5852.8
6735.79
6105.14
6343.85
6065.18
6852.21
7574.8
7637.16
7508.22
6619.73
6996.07
6394.32
6796.57
7150.4
6048.45
6574.16
5972.53
6388.48
7215.06
5906.6
6733.47
5988.13
5966.37
6643.38
8140.07
7759.81
7965.23
6692.61
7349.43
6642.5
6669.42
7182.21
7016.27
7136.59
6866.29
6996.94
7486.66
6548.55
7085.71
6493.92
6501.22
6984.69
8235.58
8150.06
8102.45
5528.67
6486.21
5685.15
5924.65
6687.68
6333.71
6771.36
6295.91
6269.98
6651.88
6612.39
6746.9
6406.86
6351.06
6815.91
7504.26
7545.94
7510.81
6458.84
7134.67
6605.52
6425.63
7075.34
6461.85
6729.17
6442.27
6109.73
6936.11
6796.76
7063.34
6617.75
6354.06
6711.98
8331.66
8089.79
8164.36
6163.13
7176.61
6797.88
6619.81
7441.09
6297.26
6878.88
6266.22
6104.77
6656.56
6372.94
6957.02
6243.82
6154.54
6797.88
7343.85
7270.73
7476.43
SCALARS SignedDistance double 1
LOOKUP_TABLE default
310.431
325.875
310.265
318.273
253.512
343.708
408.34
256.146
309.61
344.37
299.163
328.942
356.55
338.149
336.368
342.468
314.225
290.104
282.518
287.305
250.316
333.183
346.739
369.002
306.24
306.124
314.659
307.744
344.739
328.165
268.921
293.084
322.188
318.051
259.377
252.243
368.945
356.948
352.229
332.412
324.415
343.322
331.056
342.584
314.1
330.926
348.011
345.173
343.572
348.056
339.154
319.338
302.736
346.656
343.262
307.99
318.47
325.355
298.624
304.781
313.865
299.026
261.937
276.723
266.032
264.944
300.506
263.528
272.6
258.353
244.142
282.912
325.815
312.791
306.016
354.868
338.479
356.596
350.199
346.643
355.845
357.859
357.798
342.106
317.546
318.355
317.021
320.037
295.059
302.584
267.463
321.698
318.077
310.193
319.838
299.073
304.974
312.283
314.984
312.492
279.143
308.911
368.453
354.286
397.838
280.864
269.046
311.592
271.405
291.88
256.511
273.201
312.319
298.347
298.934
328.83
315.068
333.584
241.328
274.435
276.033
295.674
335.432
235.13
234.554
337.834
295.465
291.699
376.215
335.242
333.034
381.889
379.66
409.313
385.662
325.415
321.77
361.096
337.284
318.921
322.985
320.028
320.044
322.721
331.035
339.457
355.339
307.941
327.528
326.937
284.895
262.597
299.904
336.036
320.393
316.078
324.721
348.959
312.373
368.554
322.129
340.699
318.115
319.08
307.901
351.882
335.129
347.263
324.914
327.313
337.178
329.654
337.585
336.909
342.783
339.488
333.942
352.631
346.204
353.523
347.478
345.612
339.244
342.992
344.291
340.799
340.497
347.561
347.713
353.184
350.538
348.053
303.768
303.054
325.798
312.775
306.808
306.787
317.166
348.296
347.155
341.875
344.256
345.857
344.211
339.989
313.984
312.592
321.276
316.393
309.3
306.803
333.543
318.994
329.196
337.777
337.457
326.576
301.046
311.656
305.544
297.097
294.159
297.951
287.724
320.8
307.086
293.693
302.613
301.545
299.751
303.103
256.99
261.456
258.55
277.861
269.16
270.577
276.688
271.016
281.754
304.046
288.299
286.953
307.688
324.595
291.365
289.279
275.608
274.62
250.441
258.294
258.65
275.687
265.544
274.179
264.773
275.445
279.685
268.17
288.475
238.533
241.717
242.966
285.84
256.401
261.942
271.62
259.858
247.865
331.911
288.934
309.466
343.343
355.123
302.896
287.704
334.182
311.884
321.592
271.759
271.772
342.058
333.592
355.057
350.398
340.059
347.517
347.572
308.38
339.764
345.491
334.747
336.387
347.581
340.562
365.165
351.809
366.466
343.663
350.514
355.292
354.267
348.661
350.578
350.713
351.413
349.734
342.365
364.133
357.134
364.672
343.842
350.176
352.195
357.862
359.314
363.627
326.292
330.823
330.487
327.334
309.054
314.335
306.88
321.747
323.521
315.178
317.9
318.258
324.98
328.454
280.505
283.042
260.164
308.745
297.956
303.829
288.478
296.953
311.441
322.373
316.981
313.547
327.8
323.495
330.444
329.085
313.706
318.918
314.95
303.771
305.761
317.277
312.445
315.023
312.445
323.85
301.589
303.82
311.222
305.477
301.262
302.148
313.026
307.371
311.443
324.828
313.352
309.671
305.464
304.774
308.876
303.475
320.184
313.518
322.479
260.496
266.636
325.472
295.623
311.388
276.812
297.782
390.062
387.516
405.199
338.25
362.515
341.171
376.368
379.593
366.612
326.985
343.567
327.071
263.933
261.222
284.63
272.269
283.378
274.081
282.672
334.247
313.496
263.408
284.356
290.124
291.642
291.233
299.801
277.919
293.105
269.413
268.362
288.327
262.839
258.709
254.463
273.405
257.788
265.303
312.934
303.305
310.059
311.511
305.243
315.623
276.782
296.592
279.252
336.644
332.159
341.977
314.219
326.929
326.087
328.331
327.299
319.908
242.19
253.443
261.271
263.601
255.466
248.069
298.279
271.117
293.189
305.338
298.531
286.053
312.556
323.628
266.054
297.491
353.738
320.775
330.33
238.169
230.087
240.943
229.671
241.03
233.238
245.745
320.502
310.837
304.198
334.491
320.641
357.875
269.19
291.848
262.613
261.613
259.148
301.142
337.088
328.175
378.446
359.205
341.554
352.195
367.679
322.759
336.823
371.916
357.147
341.501
363.474
384.256
394.142
408.898
403.492
380.935
395.686
368.669
373.122
402.817
386.024
405.248
403.25
396.4
326.03
320.516
333.85
329.261
323.012
323.512
322.397
381.671
371.496
333.741
345.697
341.525
355.551
342.857
312.69
317.999
312.293
322.671
321.775
323.922
327.419
323.195
326.082
329.955
327.21
323.637
315.734
325.18
319.717
315.373
320.62
313.656
315.645
333.439
322.893
331.024
321.885
329.184
345.72
351.178
330.498
334.446
355.525
347.904
349.03
331.264
342.764
328.044
285.233
319.755
303.976
300.059
311.604
334.376
337.084
334.572
327.525
322.938
331.454
312.905
320.045
336.052
339.468
322.297
330.339
322.541
297.419
268.437
284.557
294.667
298.094
247.932
279.579
261.16
247.189
253.657
317.889
305.057
311.938
311.865
300.781
272.438
283.993
290.727
378.036
343.145
360.878
347.776
331.188
319.945
314.945
316.789
325.557
331.776
309.861
320.397
315.67
313.663
314.678
326.538
317.587
322.715
313.256
329.055
321.684
310.223
313.194
380.33
366.92
375.804
356.632
339.566
269.226
306.039
281.635
298.045
327.117
330.547
342.071
330.045
358.095
358.162
363.608
365.366
368.927
301.722
292.277
289.986
325.745
345.816
344.541
368.305
357.067
323.232
305.766
353.696
326.356
360.241
