# vtk DataFile Version 4.2
vtk output
ASCII
DATASET POLYDATA
POINTS 642 double
-183.271 278.36 91.1502
172.147 265.469 79.6134
-199.974 -335.5 121.98
185.868 -329.116 126.342
-4.4577 -296.414 452.736
-6.23656 99.5116 392.084
1.24486 -190.572 -130.933
-2.68294 193.739 -263.707
310.464 25.2608 -102.507
256.061 -51.7255 282.547
-327.621 27.9159 -105.913
-278.128 -54.9553 285.007
-232.267 140.248 170.794
-159.408 38.171 372.636
-108.929 250.281 225.47
95.0478 248.315 223.721
0.189915 320.262 74.4745
115.14 268.332 -120.926
-116.811 275.648 -124.238
-206.55 112.323 -198.527
-357.307 181.166 -64.8085
-335.067 -37.2543 56.7857
153.15 34.4351 364.213
223.826 119.703 170.625
-159.825 -214.778 403.975
-2.93929 -42.2957 459.444
-282.701 -212.33 -6.77414
-278.868 -233.029 215.103
-5.43629 60.8707 -261.639
-186.136 -131.769 -170.561
334.172 174.12 -63.3163
201.993 109.533 -202.096
261.336 -228.073 209.69
144.808 -210.516 396.712
104.169 -383.836 329.535
-110.747 -387.427 334.101
-2.06976 -365.987 205.766
-167.736 -277 -50.5587
155.397 -277.682 -50.9413
178.196 -132.1 -161.224
270.058 -206.473 -10.3634
322.713 -33.2038 49.3227
-220.534 231.348 122.77
-176.851 227.958 200.584
-148.107 287.32 166.03
-229.68 -1.60228 337.985
-217.725 74.7851 294.108
-269.024 25.1881 252.362
-57.2837 189.955 311.937
-122.019 155.796 310.278
-66.6068 74.8729 403.947
-82.7562 306.45 163.001
-96.7239 320.287 89.3818
46.224 189.269 309.8
-1.04131 245.339 243.462
85.428 319.25 84.901
69.9048 306.356 164.002
132.021 280.942 163.854
-62.3106 318.779 -17.4851
-183.91 266.935 -32.1269
174.962 259.475 -27.1337
55.5405 318.496 -13.151
-63.0664 250.151 -208.042
-3.82491 296.202 -136.345
54.3815 247.739 -206.467
-281.763 237.823 -87.1521
-302.081 220.505 -50.1498
-98.7342 156.647 -264.501
-181.816 208.732 -179.238
-370.581 121.444 -91.6068
-319.051 156.556 -152.937
-300.428 91.8152 -165.197
-331.59 163.232 -6.91459
-344.283 21.9766 -39.1712
-366.709 122.92 -52.8911
-301.947 69.8297 80.6396
-309.104 -69.0894 193.477
154.922 219.044 198.682
200.582 222.086 101.407
55.1892 73.8669 396.533
112.618 150.483 305.92
250.574 26.9251 249.981
206.646 70.4255 288.371
216.137 -5.75265 332.536
-68.9795 10.1266 442.434
-6.67558 34.8476 443.162
-235.027 -113.921 343.884
-178.793 -48.5204 393.088
-2.16677 -193.766 454.355
-83.8221 -138.185 447.287
-98.7108 -253.819 448.931
-321.593 -145.097 153.065
-291.242 -143.015 253.143
-313.239 -109.548 -59.8152
-326.413 -120.689 33.2822
-251.152 -298.257 169.005
-304.094 -232.917 107.237
-254.25 -280.089 61.2191
-208.244 8.87331 -191.241
-264.913 -64.5246 -139.88
-3.81174 117.502 -290.861
-82.7231 110.402 -268.648
-164.588 -157.508 -154.981
-125.264 -37.5665 -210.558
8.20722 -22.6205 -179.702
172.982 200.125 -172
91.923 153.816 -261.602
281.163 216.052 -44.2212
263.598 235.604 -86.6505
286.989 85.5454 -159.732
300.983 153.109 -146.005
349.546 110.675 -87.837
235.185 -290.291 169.488
185.879 -314.406 284.141
136.501 -365.737 251.295
221.621 -104.052 337.998
216.292 -219.401 321.587
273.461 -141.075 244.994
49.6849 -353.85 412.217
136.483 -297.776 393.085
87.3425 -253.198 445.272
49.1693 -407.543 279.038
108.686 -359.821 158.985
-58.1758 -357.407 416.681
-4.27983 -420.504 350.573
-117.774 -360.396 164.246
-57.1349 -408.954 281.883
-146.575 -371.972 253.422
134.929 -312.626 48.1793
162.641 -313.098 21.2082
-174.856 -315.971 26.3711
-136.899 -309.491 48.7719
134.977 -228.736 -99.6558
1.30582 -214.926 -76.7985
-136.706 -226.891 -98.6714
207.825 -261.416 -40.869
241.081 -272.82 56.1086
143.31 -159.012 -156.242
162.561 -220.868 -120.53
302.292 -106.71 -56.8729
239.636 -174.124 -98.7445
258.779 -63.8603 -133.62
284.859 -228.226 105.467
329.175 13.4292 -32.2704
316.008 -112.825 18.8406
296.351 -144.646 157.492
287.64 -69.3604 187.079
72.4337 -137.651 445.099
170.607 -49.6778 387.647
57.4618 8.53255 434.856
-201.764 -319.757 289.995
-149.825 -300.72 398.099
-233.846 -221.582 331.311
-175.683 -220.207 -121.983
-215.167 -265.417 -42.4002
-248.863 -176.012 -102.395
205.17 14.4482 -180.089
103.83 -53.5084 -220.154
74.7291 116.405 -267.396
285.177 57.1369 77.0916
341.712 109.498 -53.0524
307.101 160.694 -7.42669
-204.947 256.426 107.224
-183.572 265.4 152.872
-163.76 289.898 135.39
-198.453 195.318 187.067
-196.375 237.216 168.724
-225.02 203.602 133.2
-130.969 277.365 192.71
-166.062 260.311 184.02
-145.49 244.74 214.058
-255.917 -27.4088 313.264
-253.337 12.3807 297.079
-276.243 -13.9731 270.318
-196.981 55.9804 334.267
-225.717 36.9353 319.465
-200.614 19.2192 355.706
-257.698 66.5195 224.354
-245.112 51.6685 276.383
-227.439 100.571 244.009
-29.3263 143.936 346.245
-58.8414 128.283 353.209
-37.9286 88.0199 402.705
-110.927 207.692 272.867
-88.529 178.848 312.397
-81.1591 217.726 277.418
-107.699 57.2968 391.858
-97.5632 110.041 350.416
-142.517 86.4646 346.348
-189.672 151.184 241.682
-169.634 113.671 301.612
-148.206 192.352 255.991
-130.009 308.43 135.787
-140.476 306.233 95.885
-101.285 287.448 191.135
-114.498 301.727 167.141
-66.5673 327.519 79.2317
-93.889 317.611 130.392
-51.9538 315.547 122.742
19.4156 144.921 345.819
-3.96871 189.235 312.779
56.9345 248.01 235.168
27.0432 217.483 283.661
69.1045 216.109 273.652
-35.3213 216.627 284.734
-67.9461 247.422 239.632
123.1 300.736 88.9013
114.623 303.605 132.983
147.718 281.772 132.674
45.9334 316.777 123.467
79.8364 316.782 128.249
59.4828 327.261 79.587
115.235 272.728 190.542
99.4198 297.903 166.494
85.9841 286.143 190.567
-45.0004 281.253 194.103
40.568 282.619 194.384
0.931101 301.907 161.908
-122.766 312.475 40.0189
-179.564 271.212 25.1876
-41.0851 327.135 33.284
-80.4328 328.279 38.6155
-150.049 275.368 -74.6002
-104.162 309.131 -18.1052
-86.3535 306.442 -74.8034
173.016 262.29 18.3766
113.426 309.548 37.0392
78.7889 300.999 -71.3716
99.5195 305.887 -12.8984
151.009 264.243 -77.4742
73.4081 326.649 40.4718
36.0289 329.856 34.1157
-32.7054 225.737 -239.878
-3.01775 252.286 -212.625
26.106 224.978 -239.456
-58.2256 290.681 -133.117
-32.8741 275.624 -174.425
-90.4434 267.435 -170.334
81.4385 263.185 -167.401
25.3647 274.539 -174.05
49.5111 287.823 -132.773
-3.47089 319.579 -19.1933
24.3731 311.457 -81.4239
-33.4373 312.747 -81.9113
-257.101 243.589 -56.6378
-233.203 229.13 -3.61316
-210.802 234.926 -91.5487
-250.916 250.201 -65.0507
-330.122 205.174 -57.0318
-294.278 233.974 -66.0448
-323.756 218.692 -76.7707
-50.314 177.528 -267.415
-81.376 209.842 -241.177
-199.994 159.407 -197.856
-129.761 186.537 -232.959
-142.87 135.854 -252.097
-112.07 233.667 -204.767
-152.056 243.535 -160.301
-353.723 89.7322 -103.001
-339.486 109.104 -133.992
-320.807 64.212 -138.68
-347.527 173.776 -105.591
-353.313 136.339 -126.772
-378.306 145.979 -79.2217
-275.712 107.27 -182.155
-313.947 124.673 -162.796
-285.948 137.234 -179.199
-247.257 219.987 -139.505
-270.493 185.636 -163.301
-301.864 206.146 -125.063
-253.95 203.319 28.0841
-346.885 175.117 -40.2926
-323.518 191.35 -26.0786
-268.403 178.322 40.9655
-277.878 148.056 55.561
-341.678 26.292 -71.1093
-367.308 95.9834 -69.7182
-346.641 72.467 -20.5223
-361.811 95.6309 -52.0444
-340.483 0.256107 6.79661
-375.231 124.608 -65.6638
-373.425 140.956 -58.0118
-290.619 -16.0748 229.494
-295.319 -59.151 243.488
-278.658 87.2134 127.627
-283.11 31.085 196.898
-320.761 -61.9406 130.622
-302.173 -11.2151 163.503
-321.086 17.3301 57.5645
-356.139 140.519 -25.8365
-343.486 112.011 -7.6413
-327.649 127.388 11.9384
164.615 257.919 148.433
192.052 243.657 90.5436
128.028 238.955 211.522
147.664 254.557 179.954
208.358 184.631 117.819
174.135 232.637 163.677
178.519 177.31 189.872
24.4656 88.0862 398.741
48.1436 129.786 349.579
134.845 84.2576 339.183
89.5462 110.013 343.989
100.798 55.7133 381.191
78.0435 175.798 308.603
98.8226 203.174 269.684
254.836 -10.8447 268.243
237.208 11.2037 292.222
238.205 -26.2683 310.623
217.313 89.528 244.635
231.239 50.005 271.044
241.33 62.4678 225.077
189.136 14.2295 349.624
212.942 34.0416 312.633
185.898 52.6325 327.243
135.731 183.178 255.158
159.948 108.101 297.764
176.149 137.415 246.074
-38.2888 56.4746 429.179
-6.99734 65.8753 423.292
-108.58 25.3898 411.524
-69.3757 41.3127 427.532
-6.57467 2.64669 455.627
-39.8324 21.9404 447.817
-39.3613 -10.2957 457.05
-263.369 -76.1153 314.019
-237.489 -49.3287 342.254
-171.648 -125.056 393.4
-210.008 -78.2947 371.006
-199.601 -165.034 367.6
-207.168 -24.2563 367.848
-172.467 -3.05039 385.253
-2.38247 -254.264 454.06
-58.0833 -235.517 454.774
-52.2071 -277.306 453.11
-40.285 -81.7417 452.526
-51.7067 -164.269 453.408
-0.917344 -107.877 459.959
-126.678 -240.831 432.587
-92.9072 -218.357 445.812
-116.06 -192.989 427.268
-120.858 -19.6459 416.813
-123.14 -89.1201 422.367
-75.1577 -45.2212 446.528
-306.465 -101.954 221.763
-288.534 -95.7854 269.117
-325.732 -100.815 118.644
-321.594 -105.965 175.422
-285.627 -189.618 237.509
-312.067 -140.777 202.101
-305.219 -187.233 177.067
-321.263 -51.6496 -81.6134
-334.509 -57.4697 -44.9497
-307.134 -167.093 14.827
-326.325 -113.227 -22.3066
-296.436 -158.034 -37.421
-338.715 -68.4589 -4.62427
-337.471 -82.58 47.8326
-228.465 -319.507 145.868
-259.214 -292.423 113.406
-230.229 -310.191 92.8708
-297.89 -235.668 150.387
-283.061 -265.819 132.845
-267.605 -268.627 191.589
-271.53 -247.818 26.3574
-282.982 -259.438 85.8467
-296.698 -226.75 58.1967
-325.732 -146.122 94.9899
-318.239 -188.329 81.1718
-321.575 -195.082 125.113
-284.23 24.751 -152.622
-297.759 -18.9407 -124.262
-215.509 82.8564 -194.233
-263.53 58.3617 -177.855
-223.406 -102.519 -156.106
-242.189 -26.8741 -166.53
-193.678 -69.237 -185.208
-3.05757 144.58 -288.971
-47.9745 132.173 -287.527
-36.1436 82.7339 -269.919
-40.6711 112.67 -282.359
-4.71704 100.401 -280.208
-95.4515 124.218 -273.439
-136.77 120.216 -250.437
-119.588 -171.579 -139.492
-121.263 -114.602 -165.62
3.04063 -132.137 -133.109
-159.588 -92.2358 -189.659
-155.913 -101.392 -180.5
-170.035 -147.517 -164.69
0.426725 44.4309 -243.435
-106.843 -22.5324 -226.7
-49.9693 29.1918 -239.686
-137.048 69.6568 -222.357
-83.7554 31.3844 -238.04
[...]
POINT_DATA 642
SCALARS Mean_Curvature double 1
LOOKUP_TABLE default
0.008962
0.00728164
0.00923084
0.00643496
0.0105606
0.00437096
0.0485264
0.00879609
0.0022734
0.00791933
0.0043614
0.0078422
-0.00244412
0.00413636
0.00199761
0.00516533
-0.00426089
0.0040204
0.00315715
-0.0038956
0.0279663
0.00964116
0.00488767
0.000286745
0.002169
0.00836371
0.00596382
0.00431714
0.0199212
0.0149781
0.0309255
0.0106562
0.00393368
0.00176015
0.0110402
0.00818124
-0.00438857
-0.00216644
0.0201301
0.00507047
0.00705674
0.0121872
0.0135174
0.00860803
0.0127625
0.00824539
0.00637262
0.00560602
0.00897392
0.00570488
0.00720782
0.0110105
0.00341421
0.00938569
9.07551e-05
0.00526064
0.0146562
0.0126671
0.00347881
-0.00188298
-0.00252906
0.00418422
0.00829482
0.00787455
0.00834339
0.014263
0.00378788
0.00859918
0.00283871
0.0165353
0.0140222
0.00681784
0.0114375
0.00203373
-0.00185324
-0.0014869
0.00113348
0.00517362
0.0042238
0.00452794
0.00537276
0.00776394
0.00684513
0.00786121
0.0111162
0.0104728
0.00435339
0.00719392
0.000718824
0.0094565
0.016894
0.00481133
0.00550205
0.00778375
0.00102506
0.00765138
0.0100393
0.00487842
0.00129581
0.00501482
0.0348297
-0.0011982
-0.0130196
-0.0587717
-0.00956082
1.28266e-05
0.0095694
0.00486208
0.0167493
0.00837534
0.0130025
0.026535
0.00631508
0.00497432
0.00323443
0.00620881
0.00893023
0.00673921
0.0074959
0.0105435
0.0188959
0.00878261
0.0228195
0.0102246
0.0181879
0.0131002
0.00586354
0.0042544
-0.00387866
0.0292543
0.0397941
-0.00278138
-0.00290973
-0.0242593
-0.00146541
0.00655465
0.00568018
-0.00233698
0.0321023
0.0084994
0.00820862
0.00794024
0.0112227
0.00527198
0.0104956
0.00351876
0.00227091
0.00845104
0.00947004
0.00872217
0.0063462
0.00908563
0.00994141
0.0593655
0.00558126
0.00769124
-0.00176025
-0.0252672
-0.00254306
-0.00303551
-0.00305583
0.00989923
0.00706403
0.0115464
0.0123982
-7.13346e-05
0.0129521
0.000930724
0.0125798
0.0118005
0.00725663
0.00640354
0.0069825
0.00687422
0.00671521
0.00794828
0.00788986
0.00297541
0.00659986
0.00373981
0.0013017
0.00146956
0.0100177
0.00704884
0.00906536
0.00940027
0.00286858
-0.00177588
0.00265938
0.00018542
0.000795759
0.00323497
0.0141146
0.00658074
0.0102336
0.0159469
0.0115928
0.0145997
0.000928756
0.00380925
0.00393844
0.00187152
0.00708372
0.00802252
0.00468808
0.00257426
0.00279318
0.0129499
0.0111248
0.00333573
0.015552
0.0130712
0.0116938
0.0139021
0.0128769
-0.000189065
0.0021129
0.0043411
0.00702664
0.00164335
0.00454039
0.0134059
0.00499652
0.00320856
0.00836941
0.00082116
0.00906858
0.0052953
0.00381038
0.000250338
0.0124261
0.00940659
0.00870352
0.00756528
0.00989597
0.00401593
0.00577643
0.0083697
0.00702435
0.0065591
0.00390839
-3.65861e-05
0.00669522
0.00651776
0.00541801
-0.0077802
-0.0142872
0.0326501
0.0127534
0.0321105
0.0257514
0.00539614
0.0087478
0.00285578
0.00561265
0.0212662
0.00754711
0.00675681
0.00680483
0.00659365
0.00936713
0.00977214
0.0245742
0.0366731
0.0102693
0.0166913
0.0141097
0.0115602
0.00952397
0.0110836
0.000275954
0.00798836
0.00883928
0.000355923
-0.00438903
0.00555976
0.0214035
-0.00215617
0.0129807
0.00417025
0.0397344
0.026031
0.00481093
0.00544321
0.00248158
0.00380007
0.0016929
0.000313115
-0.00267665
0.0205232
0.00561896
0.00621163
0.0108332
0.00987138
0.00636253
0.0120301
-0.00321264
0.0105586
-0.00276052
0.00855915
0.00160038
0.00323238
-0.00114282
0.00224601
0.00772225
0.00591955
0.00597774
0.00729271
0.00863722
0.00495548
0.00856455
0.00467125
0.00706219
0.00779729
0.00645573
0.00371244
0.00188406
0.00140391
0.013017
0.00882861
0.00584156
0.0098629
0.0121401
0.014023
0.0135506
0.00856483
0.00602972
0.00174454
0.00645408
-0.00185183
0.00838232
0.00624558
0.000762322
0.00594822
0.00830375
-0.000745807
0.00280087
0.00792032
0.00950326
0.00796345
-0.003463
0.00162443
0.000737128
0.00770607
0.00548322
0.00705558
0.00179426
0.010941
0.00320303
0.0078399
0.000781974
0.00736555
0.00803434
0.000511932
0.0106805
0.00215042
0.00683559
0.00870137
0.0069694
0.0096462
0.0061481
0.00719125
0.00950422
0.00464516
0.00568142
0.00816043
0.00605754
0.00396221
0.00755256
0.0148679
0.00227507
0.00382573
0.00102672
0.00686951
0.00218316
0.00273992
0.00533172
0.0135172
0.0232359
0.00494759
0.00927921
0.00246781
0.0357474
0.0088528
0.00234639
-0.0015444
-0.00742343
0.0343062
-0.0116935
0.0482699
0.00236477
0.0242635
-0.00946147
-0.00626171
0.00617346
0.0136572
0.00776191
0.0058059
0.00525276
0.00679681
0.0301229
0.00558658
-0.00443651
-0.0045001
0.0104368
0.0276885
0.0235175
0.0084818
0.0184488
-0.000929832
0.00805144
0.0156104
0.00709318
0.015055
0.0156869
0.0112017
0.0355709
0.0126032
0.012676
0.0137995
0.00941803
0.010359
0.00549327
0.00870349
0.00441374
0.0040466
0.00767724
0.00566796
0.0123001
0.00585007
0.0099735
0.00563743
0.00528899
0.00305837
0.00697875
0.00142108
-0.000391746
0.00372992
0.0039787
0.00435683
0.0115299
0.0100878
0.0106454
0.00862797
0.00893279
0.00633623
0.00797547
0.0153715
0.00873322
0.00548592
0.00531351
0.00513844
0.0103396
0.0134401
0.0200288
0.00513449
-5.9233e-06
0.0119378
0.00289933
0.0143312
0.0114771
0.0104737
0.0106001
0.00680191
0.0117063
0.00717317
0.0164861
0.0111706
0.00293713
-0.00168092
0.0122721
-0.000450169
0.01206
0.00938225
0.0199881
0.0231906
0.0265404
-0.00265631
0.0533103
0.00415791
-0.00226334
-0.0207312
0.0459641
0.00155407
-0.00661858
0.0145007
0.0338909
-0.00416443
-0.0181984
0.0372606
-0.0116754
-0.00168029
-0.00207234
-0.0219488
0.000301513
-0.00191916
0.0196725
-0.010414
-0.00702016
0.0183785
0.000166564
-0.00891836
0.00603388
0.00552624
0.00355518
0.00605285
0.0273066
0.00904313
0.00523085
0.00727342
0.00901802
0.0028938
0.00210819
0.0158144
0.0239803
0.0357783
-0.00475148
0.0542108
0.00828623
0.0070685
0.00636789
0.00664339
0.00428426
0.00438022
0.000235963
0.00429323
0.00834192
0.00981271
0.00688819
0.00764052
0.00852921
0.00477861
0.00910485
0.00975428
0.00737926
0.00300875
0.00806472
0.00886721
0.00745535
0.0083109
0.011833
-0.00289628
0.00602865
0.00241883
0.00282996
0.0121922
0.00148732
0.00763487
-0.000542313
0.00897803
-0.0033706
0.0107809
0.00916106
-0.00336649
0.00374124
0.00391963
0.0064318
0.00885239
0.00644964
0.00917788
0.00661603
0.00337867
0.0120639
0.0132181
0.0138753
0.00749652
0.00182412
0.00310704
0.00480975
-0.000712646
0.00527373
0.00885567
0.00668219
0.00636183
0.00462168
0.00880833
0.0116579
0.0157481
0.00803198
0.00816291
0.00392306
0.00427666
0.00376801
0.0041912
0.0095931
0.00710978
0.00524033
0.00549244
0.00265875
0.0533466
-0.0292362
-0.00262295
0.0332072
0.00267404
0.00825327
0.00515816
0.013827
0.0359231
0.00633718
0.00545946
0.00441636
0.00462331
0.00685105
0.0161783
0.0065707
0.00719654
0.0025911
0.00378713
0.00216612
0.00570641
0.00680664
-0.00338186
-0.0134679
0.0402801
0.00135143
0.0204693
0.0241529
0.000669168
0.0492661
0.00789266
0.00294904
0.00516249
-0.00116579
-0.00586917
0.00443963
0.00222841
-0.000620789
0.00247633
0.00169385
0.0188404
0.0126389
0.0415158
0.0166217
-0.00433643
0.00439219
-0.00401788
0.00204653
0.00997464
0.00754302
0.00480603
0.0128351
0.00531254
SCALARS CoVolArea double 1
LOOKUP_TABLE default
2668.89
2682.42
1992.67
2042.74
1730.92
1811.91
3183.82
2071.78
2337.94
1591.61
2425.37
1513.62
6081.83
2546.89
2010.61
1933.3
3261.17
3576.3
3820.7
2714.82
1367.75
3573.16
2526.04
5804.49
2946.55
2097.46
2755.7
3098.53
1678.63
1990.12
1093.84
1912.17
2824.15
3105.4
2424.89
2639.12
4717.7
736.23
567.693
2305.58
2628.85
2682.45
2544.85
2335.71
1245.97
1747.34
2804.81
2132.27
2220.86
3237.57
2113.52
2110.48
1853.55
2147.58
3692.94
1706.51
1792.54
1218.94
2901.66
3897.29
3751.81
2971.96
2458.06
2821.44
2392.41
2188.84
2230.2
2324.05
3955.05
1127.1
2210.49
1885.99
2080.94
2764.55
961.888
5176.69
2710.69
2473.57
2689.79
2340.42
3069.8
1822.44
2421.81
1568.09
1895.23
1217.72
2924.93
3155.98
3699.7
3561.98
1647.4
2465.98
2627.98
2364.8
2952.91
2493.78
1887.25
2287.88
4900.6
3078.33
969.523
2622.88
1452.57
1500.09
12154
4446.11
2259.67
1656.22
1799.39
1639.53
2157.12
1105.9
2302.73
2815.51
2500.22
2756.18
2627.93
2267.28
2582.66
2387.68
1488.36
1740.83
1676.34
2517.95
2175.54
1743.42
1722.22
2608.89
5238.47
1584.43
1385.98
6023.89
2780.9
8058.83
3114.24
1983.56
2158.52
955.911
1164.84
2085.28
2232.79
2803.06
1837.32
2475.01
2368.74
2839.39
2969.71
3579.94
2510.99
2240.52
2850.91
2609.33
2646.66
891.312
2159.24
2398.74
5062.79
2079.03
2892.53
5432.22
1210.43
1884.28
2990.56
1550.57
1661.99
3380.21
1673.9
3781.21
1310.02
1311.53
2063.56
1783.62
1814.25
1873.27
2490.85
1712.4
1769.94
3886.66
2075.73
3677.39
2647.14
2518.12
1820.68
2370.33
2282.77
1969.32
2513.47
3044.99
3332.08
3968.74
4000
3612.27
1501.3
2645.99
1860.39
1161.48
2104.88
1513.3
3180.27
2583.25
2547.48
2552.67
2468.43
1940.99
2587.52
2929.39
2796.76
1578.48
1907.44
2925.95
1426.94
1848.34
1268.45
1169.21
1610.15
3531.83
3110.66
3300.59
3545.13
4055.52
2897.96
2144.68
4035.96
3635.93
3398.95
3687.07
3136.74
3798.68
3689.78
4084.57
1941.36
2777.48
2398.42
2468.88
2336.21
2944.72
2554.06
2719.25
2795.47
2504.48
3091.64
3608.02
3497.32
3398.81
2265.2
4037.59
4110.86
2046.14
949.896
817.655
1705.99
2527.46
2576.53
4268.7
3461.87
2480.98
2979.19
4000.56
2073.23
1607.21
2460.43
2372.46
1635.43
1217.9
1852.25
1351.97
2575.02
3726.07
3418.21
2778.5
3704.99
1192.07
2130.45
3108.81
5218.68
2757.07
1513.65
2780.55
1438.05
2974.25
541.549
852.342
2656.06
2037.31
5804.75
4009.03
3794.91
5068.65
5477.75
1229.2
2921.63
3137.81
1597.27
2509.96
2038.01
1270.72
4838.27
2307.34
4187.75
1881.99
2576.4
3134.93
3083.06
2717.59
2301.9
2380.82
1808.62
1586.84
1578.99
3335.4
1663.29
3037.79
1660.99
1609.64
2316.54
3442.19
3542.44
3708.49
1288.58
1338.17
2319
1488.56
1274.27
1186.6
1851.21
2201.02
2121.38
4392.85
2829.32
3219.95
1908.79
2393.96
2500.58
2560.2
2078.85
3045.1
3393.25
3233.92
1541.48
2085.03
3660.83
3286.77
4693.03
3327.83
2045.19
2185.49
2970.65
2137.73
2891.86
2364.63
2845.91
2952.02
2653.36
3276.82
2533.12
2588.71
2969.55
3145.78
2402.2
2000.09
2118.55
2410.62
1987.54
2618.01
2239.91
1939.68
2587.58
2872.02
2758.38
2355.43
2905.08
3060.93
3710
3026.89
2850.36
3516.17
3209.72
2090.88
1662.51
2075.74
1025.22
1095.22
1191.23
2334.07
3899.11
7632.18
9760.65
1518.18
1519.34
685.126
4058.03
5366.73
1822.93
5456.94
3741.18
4057.01
2556.53
2467.47
3645.94
3244.31
2080.66
3521.91
3925.5
3068.52
2053.57
1559.58
892.679
924.44
2076.32
2917.15
2102.36
1429.35
1823.8
2328.59
1451.72
1550.75
1089.73
1694.11
2089.05
3294.99
2594.34
3493.98
2300.4
2615.91
2730.15
3008.94
2576.52
2337.02
1782.41
2316.42
2372.23
2010.47
2689.55
2142.74
2718.53
2933.23
3415.63
2544.86
2596.32
2904.09
2246.47
2327.79
2019.19
2647.76
2476.14
2665.11
1609.3
1745.97
2000.39
3267.38
2848.39
3045.39
2642.78
2346.82
1887.46
1971.18
2584.98
2091.64
2850.63
2165.1
2359.94
2497.89
2475.16
2671.69
2498.51
2518.32
2294.37
2593.72
3029.03
2888.51
2027.36
2883.36
2012.15
1923.44
1980.55
1749.77
1703.43
1961.95
1300.8
2281.34
8533.85
1738.47
800.03
824.451
1486.67
1976.69
1216.87
1946.37
1196.13
765.424
2422.22
9040.67
3704.43
6529.86
3810.86
3038.85
4050.68
919.289
1251.98
4188.43
3349.36
11843.6
8516.31
8287.87
2397.65
2267.88
1258.61
1782.9
2087.61
2084.43
2079.91
3426.41
1221.16
1633.62
734.114
1023.76
641.481
740.175
2722.19
2468.15
2745.25
2304.13
2260.38
2345.18
2804.94
2428.99
2288.02
1952.19
2183.39
2321.04
2027.51
2529.57
1880.08
1853.8
2159.93
2689.27
2427.23
2768.55
2220.73
2266.78
1952.47
2876
1874.68
2231.85
2463.67
1914.5
3293.71
2196.81
3301.54
2736.26
3553.96
2546.01
2320.3
3680.7
2040.51
2981.74
2677.07
1733.25
2162.01
1556.21
2420.84
3888.53
1360.03
1891.85
1241.1
1712.65
2512.7
4383.58
3291.71
3671.17
2897.52
2612.1
2454.9
2752.87
3123.94
2377.82
2068.83
1958.24
2617.57
2846.14
2846.66
3043.72
2657.2
2662.93
2514.96
3159.9
2992.48
3337.69
1636.92
629.272
846.109
647.637
1388.44
2451.03
2327.57
2398.68
1851.55
1147.11
2800.49
2401.63
2577.51
2413.15
2504.17
1848.92
2534.35
2224.83
2611.85
3558.24
3368.02
2698.88
3196.35
6019.54
1990.42
3798.97
933.763
2053.63
1576.1
2002.51
998.954
930.292
2416.43
5101.06
4925.36
6083.49
2804.81
4451.51
4908.64
3973.33
5362.66
1346.87
812.907
545.945
1264.76
2352.78
2592.79
4903.89
2943.24
1699.97
1129.2
3110.15
1451.07
3372.37
SCALARS SignedDistance double 1
LOOKUP_TABLE default
88.8007
101.156
89.6884
87.3046
79.621
99.0522
206.11
69.8882
86.3445
95.9099
84.1131
90.6266
100.715
94.0715
98.5644
98.9973
88.9912
84.0212
80.719
103.866
84.7802
95.6976
95.2825
102.3
87.9226
86.9577
86.405
84.322
117.779
107.301
90.1325
111.887
89.437
90.8405
70.9114
69.0935
138.913
112.381
111.008
96.1847
89.7335
97.3897
101.845
100.928
84.866
89.678
94.4726
95.2329
94.3739
95.8865
93.9631
90.5729
86.7911
93.4363
97.1461
86.3636
90.0137
88.4915
87.4756
94.4073
100.997
86.8965
71.374
78.0086
72.309
87.1848
88.604
74.8469
82.9629
84.4998
66.7979
79.4867
99.864
94.492
95.118
104.308
95.192
105.983
110.756
96.8468
97.5672
98.4872
96.5663
92.9731
87.2036
88.5654
86.762
87.5474
83.3901
83.9806
84.135
91.451
88.1021
83.7441
94.0309
79.7457
82.8639
85.0285
94.5015
86.5957
97.3757
96.2275
113.102
120.039
169.939
89.7995
75.8103
92.919
86.3311
83.4866
68.2347
89.7414
85.1355
82.2936
83.136
90.1211
88.6403
93.7333
66.3192
79.1311
87.0947
98.9959
114.654
63.3232
77.0247
117.169
103.261
84.5953
112.636
111.909
115.404
122.596
113.143
197.412
122.804
87.4235
86.5742
110.018
109.05
85.6704
85.8935
87.8863
88.0285
99.8987
93.0271
98.1736
99.2721
85.5822
89.7325
91.2533
77.8863
73.2997
82.4536
113.174
87.7092
84.0249
93.4686
134.163
92.5351
111.414
97.163
103.025
94.1057
87.2555
82.4881
105.11
95.4736
107.027
89.5368
90.5697
97.1794
90.5051
92.553
92.8179
92.7262
91.8996
90.4511
97.5583
94.2907
98.2838
104.195
104.037
95.4463
92.6479
92.4093
91.7417
95.1301
101.209
98.8053
99.3744
99.3465
96.1217
81.5383
82.4306
92.4625
87.0927
90.7733
86.2627
88.5807
104.296
94.6615
99.4816
93.4691
93.9305
93.4443
98.3696
86.5599
83.5135
87.6219
89.3912
85.3835
89.3552
91.8296
86.6396
91.0478
95.2708
98.2482
90.843
82.6315
93.3348
92.8037
83.672
84.7976
82.1039
79.0757
103.614
85.8821
80.7366
85.0045
92.5928
81.7664
91.9795
69.1336
71.558
69.0094
77.4455
75.0421
74.242
76.2274
76.261
78.3162
88.3681
80.0482
81.3429
103.849
97.9244
95.7229
108.663
85.5754
90.8067
83.4512
72.6595
69.1823
88.4809
72.1223
90.3948
71.4411
77.473
78.6859
75.7095
80.8919
62.3841
75.0507
87.6855
87.2164
79.2396
84.5353
95.3599
82.4994
69.1363
104.41
88.8208
92.9843
106.564
106.162
87.4584
91.9712
97.0784
94.0668
98.8768
96.2422
94.6836
95.633
94.3777
97.4884
96.9095
96.996
99.6383
102.915
100.44
102.578
106.5
93.3743
108.554
100.631
95.0424
106.446
100.913
105.976
97.0629
104.148
99.2938
101.909
97.496
94.4889
95.3087
97.0065
95.4307
93.7999
100.424
96.6545
101.327
93.5396
94.6185
95.2878
98.6789
101.145
102.866
90.1731
92.3069
93.1534
89.7948
85.9209
85.979
84.0702
88.8547
89.0164
89.077
87.1736
90.339
88.1997
91.0906
81.063
82.0138
80.0047
91.1139
83.9556
91.0533
87.3633
87.9889
88.4961
93.0094
93.32
89.8063
92.5781
90.0429
93.6657
94.8987
87.2475
87.2613
91.7367
81.2397
85.9231
91.2393
87.0699
89.9562
90.2568
94.8976
81.893
83.0411
85.8943
84.0578
81.8377
82.8199
84.257
83.2274
84.8718
93.6441
90.3807
91.0963
86.1367
84.8827
102.693
89.52
88.2637
86.8834
92.0518
82.2191
93.1155
107.372
97.2274
99.42
94.1634
93.7704
133.597
126.356
188.424
112.722
111.97
114.99
123.766
140.172
139.8
109.239
139.39
111.331
70.9873
73.3451
88.0205
73.6921
98.2601
76.1722
99.4299
105.849
100.972
87.5925
92.2886
89.1074
99.9827
103.224
83.6227
80.9279
84.4337
82.0458
78.2777
87.907
93.5513
73.977
68.8904
91.5631
68.142
76.2114
84.9556
83.5236
86.0618
87.2075
82.4789
86.9405
85.0094
80.7341
82.2765
92.8892
92.1087
97.1881
88.0665
92.588
92.667
90.5263
91.142
89.1531
71.4113
69.5897
79.723
73.8179
69.6562
67.7551
90.2803
83.19
88.8479
84.2956
84.0769
82.0026
99.2451
104.941
87.6826
90.3254
116.279
106.206
111.844
70.1774
62.1982
77.7422
61.4365
65.5595
63.1548
75.3492
108.843
103.396
86.9013
116.262
110.89
121.947
81.0644
94.0201
91.9996
98.5526
101.754
102.596
111.994
95.8447
125.245
111.607
113.795
112.4
113.607
104.754
113.384
115.908
113.982
115.104
112.936
136.826
139.246
192.033
161.233
112.317
130.294
110.479
112.941
143.282
120.056
192.212
155.702
141.39
89.0137
87.6685
107.675
94.571
88.1514
86.5239
85.4754
117.744
112.978
101.577
109.76
110.213
109.223
111.988
83.9738
86.4722
86.819
87.8068
88.862
92.205
91.7382
92.4292
87.2835
95.1575
88.959
86.4232
85.6804
90.2336
86.0154
85.0858
87.9667
91.0332
88.8229
92.809
92.671
98.4286
89.5586
97.3836
98.3976
98.4865
95.7414
93.4747
102.908
98.4734
100.869
96.9707
99.3682
96.4664
86.489
89.755
90.4396
85.318
95.3418
91.4016
92.6529
91.2651
89.8035
90.6148
91.5672
86.8506
88.4616
92.8813
95.9816
92.0851
94.3117
94.502
82.0863
76.3375
78.4828
81.6783
83.496
69.6083
86.4856
78.8669
66.7787
69.1837
86.5682
86.4415
89.0139
92.7085
84.4602
76.3222
81.6367
80.316
120.379
113.452
110.668
112.873
112.627
90.9104
83.58
85.6135
102.28
112.191
84.8587
87.2601
86.8234
86.2085
84.9816
103.363
85.0938
91.4707
87.3
90.1106
92.2516
87.3377
102.692
115.47
154.831
147.756
112.311
111.347
94.054
97.111
93.0625
97.1429
105.88
103.978
136.703
103.632
100.477
104.144
102.73
102.155
102.868
95.1975
95.754
98.1181
95.8509
103.815
109.947
108.941
109.041
97.3935
92.808
103.884
102.042
107.435
