# vtk DataFile Version 4.2
vtk output
ASCII
DATASET POLYDATA
POINTS 642 double
-153.512 242.012 92.4255
134.043 225.957 76.9544
-182.028 -294.07 129.43
163.688 -292.212 132.479
-5.53268 -291.095 408.692
-8.19599 61.3459 354.516
1.6173 -146.499 -89.7785
-3.44575 174.033 -230.396
269.223 37.3102 -82.7069
207.64 -56.3635 262.521
-288.412 41.9826 -84.8941
-233.675 -61.8973 263.671
-185.775 115.49 152.056
-135.047 12.9375 334.454
-95.9607 209.455 186.031
76.8768 210.061 184.534
1.32241 271.304 67.6944
96.9736 227.725 -106.652
-98.9988 236.632 -110.501
-177.692 110.747 -147.089
-322.181 156.826 -76.4398
-285.108 -43.9306 44.8332
128.169 9.587 325.123
177.925 91.5369 153.202
-131.725 -219.69 364.382
-4.52691 -41.8299 411.452
-243.071 -191.65 7.88908
-238.123 -217.039 201.253
-3.9204 83.4393 -217.514
-173.404 -118.474 -136.255
295.051 151.491 -78.2967
186.749 94.2932 -174.18
217.428 -211.233 194.998
113.581 -212.728 356.838
83.2916 -354.125 319.552
-92.4349 -358.703 323.655
-0.927172 -310.803 236.223
-192.114 -243.185 -28.7489
176.161 -242.578 -27.6901
158.328 -118.789 -124.024
228.204 -185.894 1.76604
271.943 -38.0217 34.2091
-171.452 210.991 105.731
-137.9 206.426 168.181
-127.178 253.359 144.915
-194.334 -15.739 307.431
-183.857 45.6497 268.285
-223.155 4.91051 235.849
-52.2852 157.125 272.463
-96.6636 129.357 273.223
-48.0848 42.4542 369.151
-84.4876 262.883 140.511
-85.8409 273.319 86.5323
37.2301 157.228 271.422
-1.82438 200.661 212.144
68.9493 274.494 81.2621
68.6673 263.044 141.67
105.989 247.704 143.046
-58.4903 270.804 -10.7862
-166.37 219.063 -29.451
153.928 206.396 -24.535
48.7305 271.486 -4.37127
-55.8139 219.431 -184.597
-4.97562 255.661 -120.239
44.4759 217.124 -183.533
-270.42 196.112 -78.6618
-280.429 185.13 -71.2569
-85.3788 147.111 -229.812
-164.572 184.238 -148.584
-331.755 132.683 -82.6469
-298.956 146.367 -125.511
-277.479 100.685 -130.262
-294.957 143.313 -41.6355
-293.558 31.9485 -37.9672
-323.746 131.602 -80.6197
-249.487 60.8727 60.324
-258.575 -79.9871 182.001
111.196 195.426 165.561
146.962 197.092 81.265
33.4023 42.3357 360.092
85.8589 123.219 269.185
201.537 8.52166 235.063
171.78 41.2539 262.385
178.783 -20.8891 301.754
-48.7274 -2.7198 401.693
-9.29257 11.8755 400.415
-200.474 -109.744 310.62
-154.335 -53.1885 352.101
-2.87155 -193.555 407.83
-67.3143 -139.593 404.591
-83.5667 -254.639 405.627
-272.247 -139.948 145.343
-247.103 -135.896 233.144
-275.669 -92.614 -41.4169
-277.927 -106.858 37.1559
-219.702 -269.232 164.022
-263.852 -212.188 110.213
-223.979 -246.544 73.9552
-188.28 13.7759 -143.849
-235.424 -51.6454 -103.526
-5.64507 141.993 -244.694
-68.1941 137.788 -226.195
-195.356 -136.02 -115.438
-117.059 -30.7002 -178.133
14.4748 19.9552 -129.193
154.482 175.481 -137.596
78.1331 144.291 -226.445
256.059 179.67 -66.7153
247.433 193.11 -81.0001
260.837 97.1273 -124.075
277.236 141.627 -119.989
307.863 116.001 -82.921
199.843 -260.191 165.08
150.745 -289.325 270.637
113.542 -327.569 252.618
183.963 -99.2013 306.449
175.835 -210.604 295.765
226.785 -136.53 223.765
36.711 -331.889 385.993
105.035 -283.336 367.273
67.4003 -255.536 402.739
47.4248 -359.063 301.447
111.554 -314.429 172.123
-47.9403 -336.763 392.13
-6.30459 -384.046 342.557
-121.207 -308.654 180.94
-61.0715 -361.442 311.03
-125.005 -332.877 257.975
166.612 -274.011 71.8489
164.04 -270.176 38.4459
-179.902 -273.012 44.9934
-163.241 -254.6 74.508
154.729 -187.348 -59.9284
3.62355 -206.238 -78.6362
-153.822 -183.662 -56.706
183.356 -233.143 -23.0226
208.926 -239.469 66.8926
162.577 -136.642 -117.405
168.493 -188.183 -78.8914
263.41 -89.4935 -38.8148
207.753 -155.255 -70.811
231.903 -51.1686 -97.0152
240.414 -210 107.484
279.221 22.3524 -27.4043
268.252 -96.4413 17.7662
242.298 -140.47 152.985
234.772 -79.2156 175.241
54.0894 -138.944 402.576
143.735 -55.2487 346.962
33.9034 -4.35741 392.854
-169.303 -294.858 278.901
-123.07 -285.803 373.486
-196.917 -213.89 307.481
-184.847 -187.544 -84.7777
-193.809 -239.12 -25.9847
-218.203 -157.008 -75.1834
184.509 22.8561 -133.725
104.626 -27.1784 -179.081
61.741 143.281 -230.535
230.168 42.6869 53.3888
300.278 106.964 -82.1497
267.144 140.614 -42.1447
-166.953 226.425 100.867
-150.706 237.427 136.496
-137.794 255.144 126.396
-148.303 175.785 161.659
-154.863 219.307 143.976
-172.013 188.442 108.657
-116.442 245.103 160.785
-138.3 233.683 156.193
-122.472 214.736 178.456
-214.953 -37.9566 286.117
-211.631 -5.18339 273.202
-230.922 -27.502 251.534
-169.389 28.6482 301.86
-190.569 14.7021 291.402
-172.303 -0.539392 320.37
-213.102 41.043 208.364
-204.45 27.2305 255.775
-186.243 71.7436 223.837
-24.3805 107.245 300.733
-42.7438 90.6051 308.054
-30.223 51.2359 366.273
-89.6712 175.739 240.844
-73.3377 150.5 274.137
-71.2187 180.316 246.256
-83.6706 28.1833 355.485
-78.0456 76.7246 307.402
-118.915 55.2042 308.579
-151.853 123.235 212.768
-137.581 82.1097 267.585
-116.688 166.198 224.057
-115.594 267.726 126.398
-121.01 266.346 96.8273
-97.8692 249.886 158.584
-106.172 261.146 144.312
-67.0088 277.403 72.7712
-91.4611 271.036 119.859
-55.4165 268.177 111.188
12.666 108.995 300.53
-4.49778 156.054 273.078
50.9781 203.938 200.459
23.2914 177.856 251.592
55.1388 178.675 241.936
-34.163 176.934 252.535
-63.9799 203.129 206.549
97.4712 260.95 88.3155
94.374 263.907 124.411
116.486 247.324 124.158
49.5415 268.785 111.86
73.3496 270.796 118.097
57.2682 278.443 72.9322
94.6108 241.877 158.987
85.1234 259.443 145.105
78.621 249.811 158.128
-46.8193 239.775 161.954
42.3596 240.534 160.111
1.44614 257.855 138.801
-102.755 272.381 43.3959
-150.283 228.953 27.4711
-43.5351 275.173 35.5362
-74.654 282.959 41.0115
-129.593 235.018 -63.0117
-89.0106 267.537 -10.2968
-74.2714 265.97 -65.0801
139.47 215.274 18.1421
89.2638 269.909 39.4693
64.1473 260.247 -60.6787
80.9743 264.352 -3.76028
131.325 218.705 -69.1097
63.5604 282.442 42.8414
37.2464 278.91 36.3723
-29.158 201.183 -211.636
-3.98773 220.34 -189.163
20.5093 200.632 -211.676
-50.3456 251.194 -117.822
-29.8868 239.038 -155.181
-78.8828 232.736 -153.064
67.335 227.938 -149.81
19.7476 237.491 -154.629
38.9823 248.912 -117.779
-3.32261 270.815 -13.523
19.1901 268.248 -71.898
-30.7773 268.663 -72.6253
-241.207 202.649 -61.5147
-198.588 195.819 -24.3742
-199.252 189.027 -64.8928
-239.962 202.878 -60.6653
-304.276 174.678 -79.1938
-275.898 195.892 -79.7326
-298.335 182.923 -81.4629
-43.7826 160.468 -232.962
-71.0183 188.282 -212.231
-179.714 150.085 -158.571
-111.499 167.462 -204.06
-120.472 139.043 -216.425
-96.9972 206.834 -180.727
-134.489 210.248 -143.135
-317.675 102.85 -86.7058
-309.164 119.468 -107.759
-290.331 77.4553 -110.452
-324.538 157.802 -93.2472
-321.255 137.021 -102.902
-333.143 140.712 -82.6598
-261.474 111.296 -137.035
-289.449 128.815 -127.644
-269.738 132.339 -135.828
-237.026 179.401 -117.069
-257.242 163.508 -130.366
-286.018 179.919 -105.067
-213.251 165.705 10.7805
-313.467 153.587 -64.9758
-295.229 161.232 -52.403
-224.902 148.275 13.1261
-233.567 118.516 27.196
-296.482 38.4521 -61.3719
-321.068 108.913 -75.8559
-303.928 64.9353 -47.0535
-318.982 100.08 -73.7599
-293.58 4.80177 5.79793
-333.425 136.025 -83.4571
-333.029 140.702 -82.91
-241.035 -29.4376 216.907
-245.264 -67.1835 228.374
-233.45 64.5358 110.434
-234.406 12.8676 184.077
-269.018 -71.3338 120.02
-249.164 -24.3673 152.11
-270.964 5.25943 37.0854
-310.49 135.342 -55.9951
-295.027 109.407 -36.8891
-282.802 111.986 -23.5467
125.905 231.5 132.999
141.923 211.549 76.4515
96.8054 209.374 175.601
114.828 229.522 151.462
158.993 160.89 96.1156
128.519 213.335 139.886
129.573 152.464 167.768
12.3355 52.7577 361.562
28.9053 94.7812 304.523
110.23 54.116 301.589
67.6455 77.8261 299.854
76.067 27.3201 341.876
58.9313 147.191 270.366
74.371 171.127 237.268
205.754 -22.4204 250.605
193.121 -5.27796 268.558
194.345 -35.9207 285.059
175.293 58.9163 225.629
188.944 26.3395 250.773
193.128 37.2264 211.203
158.491 -6.23464 313.983
176.101 12.2494 283.654
156.186 25.3847 294.032
101.279 154.923 225.094
126.551 76.0423 264.975
135.899 105.741 219.208
-30.5881 27.5185 389.573
-9.57941 33.8234 384.194
-82.558 6.40813 371.352
-49.8032 17.5165 389.843
-9.33899 -8.66252 409.752
-31.8321 3.27677 404.857
-30.8055 -15.6785 410.886
-223.527 -77.5078 285.939
-200.785 -54.2142 309.689
-144.335 -123.228 352.436
-179.011 -77.4808 334.235
-165.992 -164.047 329.777
-176.652 -33.9906 331.647
-147.83 -18.5037 344.449
-2.74779 -254.04 408.863
-53.3234 -236.545 409.522
-48.3281 -273.375 408.87
-31.8766 -81.6586 400.115
-46.2525 -164.63 407.011
-1.73077 -108.968 411.334
-100.771 -248.061 393.048
-74.5681 -224.255 401.66
-88.7737 -197.326 386.06
-95.0609 -28.1175 370.981
-97.0448 -91.2453 377.252
-56.9532 -47.0639 402.097
-257.93 -105.473 205.715
-242.824 -95.8086 248.696
-274.19 -101.812 112.034
-270.526 -110.151 165.564
-241.939 -176.864 220.787
-266.517 -134.056 188.56
-257.349 -173.977 162.048
-284.164 -41.1931 -61.1489
-288.627 -49.0478 -35.095
-262.168 -149.883 25.7316
-282.628 -97.0114 -13.7939
-253.486 -135.975 -20.8331
-289.004 -61.9058 -3.05895
-286.852 -77.284 44.8412
-202.732 -284.209 147.013
-228.132 -259.594 118.753
-205.069 -273.994 103.126
-257.139 -217.26 140.424
-246.216 -239.501 130.489
-230.229 -245.835 180.801
-237.438 -220.264 39.6873
-248.028 -231.924 94.6399
-255.948 -206.196 69.7631
-274.452 -141.361 94.2565
-270.734 -175.711 89.4574
-273.218 -183.346 120.215
-257.298 37.9302 -116.432
-265.238 -6.86248 -93.1149
-198.64 87.2183 -141.422
-245.864 67.1089 -135.376
-198.136 -90.8771 -121.182
-218.254 -16.9581 -126.941
-173.735 -60.5724 -148.349
-4.62144 142.421 -246.747
-37.4904 141.286 -240.179
-29.6025 104.54 -221.922
-32.0064 140.43 -238.851
-6.17623 125.728 -233.805
-78.8029 143.597 -229.546
-119.916 138.974 -217.239
-126.038 -146.906 -85.4005
-140.912 -79.4906 -113.029
4.09663 -121.588 -79.1956
-156.201 -82.161 -161.858
-163.086 -92.2133 -158.03
-177.679 -130.009 -128.493
13.3738 78.6473 -230.638
-101.716 -11.2088 -186.754
-45.9155 39.0261 -205.159
-116.415 83.0881 -175.473
[...]
POINT_DATA 642
SCALARS Mean_Curvature double 1
LOOKUP_TABLE default
0.0168617
0.0251218
0.0255588
0.015596
0.00436609
0.0035554
-0.163256
0.00978468
0.00317369
0.0101954
0.00432304
0.011646
-0.00199541
0.00394506
-0.0189213
-0.00354302
-0.00431355
0.00361217
0.000166446
-0.0333769
0.072215
0.0140145
0.00529334
0.000918759
0.00109148
0.0196537
0.00704124
0.00701394
-0.0324858
0.0207711
0.0370283
-0.074955
0.00420823
0.000286654
0.0298436
0.0227351
-0.00540233
-0.0752376
0.109485
-0.0170121
0.0101227
0.0314331
0.0190308
0.0111498
0.0252993
0.0130841
0.0106051
0.00538206
0.0101597
0.008645
0.0106505
0.0167362
0.00064008
0.0158538
-0.000881117
0.00632373
0.0235948
0.0241666
0.00127549
-0.00724396
-0.00992854
0.00394109
0.0101123
0.00871937
0.0113347
-0.00513891
-0.000849661
0.0432712
0.00478732
-0.0282275
0.0370545
0.0161799
0.0138143
-0.0169492
-0.0280673
-0.00520677
0.000615245
-0.00178856
-0.00300111
0.00524809
0.00954004
0.0094641
0.0115005
0.0119589
0.0179724
0.0138249
0.00608314
0.0108652
0.000774611
0.021558
0.0224386
0.00769537
0.00658305
0.0150082
-0.00018693
0.0142175
0.018589
0.000781147
-0.000878592
0.00260419
-0.05971
-0.00689987
-0.0457199
0.0664477
-0.0125555
0.00341532
0.0690619
0.00927456
0.0452622
0.00681743
0.0242069
0.149487
0.00942745
0.00590006
0.00948061
0.00968051
0.0121492
0.00956526
0.00958724
0.0160899
0.0273336
0.000149215
0.0753897
0.017494
0.0541762
-0.0517108
-0.0226627
0.0117174
-0.0223363
-0.0141636
0.283221
-0.0141255
-0.0175509
-0.0279147
-0.0122637
-0.00506342
0.00416853
-0.0761301
0.215297
0.0180955
0.0128228
0.0160564
0.0205704
-0.0141569
0.0247532
0.00219057
0.00280885
0.0163616
0.0150908
0.0128782
0.0100241
0.0168443
0.0203945
-0.85162
-0.00285696
0.00782803
-0.00368803
-0.187116
0.0217626
-0.00752864
-0.063379
0.00883197
0.0164183
0.0265275
0.0222728
-0.00610793
0.0193637
-0.0056166
0.0247569
0.0258893
0.0245533
0.00649407
0.00739889
0.0101885
0.00940549
0.0113053
0.0114588
0.00299883
0.00876954
0.00418871
0.00276048
-0.00758546
0.0168231
0.0154223
0.0176079
0.0190529
0.00262842
-0.00403547
0.0042147
0.000751756
-0.00271322
0.00440133
0.0293728
0.0109066
0.0142144
0.0257657
0.00999792
0.0213726
0.00164868
0.00751279
0.00614253
0.000164753
0.00997098
0.0170068
0.00648804
0.00188371
0.00424652
0.0262674
0.0194571
0.00211598
0.030887
0.016054
0.0246995
0.0334223
0.0239334
-0.00227007
-0.00306745
0.0100337
0.01137
0.000156505
-0.000423112
0.027228
0.00965323
0.00604476
0.0130214
-0.00114668
0.0142109
0.0078356
0.00602724
0.0037553
0.029148
0.00644692
0.013128
0.00843729
0.0160889
0.00456099
0.0064256
0.0119766
0.00942379
0.0062795
0.00501761
-0.00134405
0.00891577
0.00691022
0.053207
-0.0197194
-0.0264616
0.0611092
-0.0241229
0.192207
0.0874836
0.00823131
0.0127763
0.0126596
0.00556849
-0.00808547
0.0102693
0.011744
0.0242261
0.00775691
0.0164518
0.0443728
0.0359609
0.107454
0.00934279
0.0130689
0.0122123
0.010702
0.0201156
0.0225898
-0.00137691
0.0183408
0.0159846
0.000201184
-0.00639847
0.0164964
-0.175085
-0.0522157
-0.0915509
-0.0824859
-0.478722
0.0613932
0.00526095
0.00283971
0.00820554
0.00561999
0.0012133
-0.00147854
-0.00481692
0.0282075
0.00654585
0.00353461
0.0278439
0.00203761
0.0158254
0.0248721
-0.00193055
0.0110475
-0.00398951
0.0159036
-0.00524964
0.00659485
-0.0052475
0.00177496
0.0115194
0.0106223
0.00798656
0.00853865
0.0112321
0.00646977
0.0148234
0.00462667
0.00928235
0.0117338
0.00816191
0.00643965
-0.000708585
-0.000452512
0.0204653
0.010198
0.00922902
0.0161347
0.020036
0.0246799
0.0194516
0.0117407
0.00603332
0.00314108
0.00805837
-0.00413215
0.0124825
0.00812991
0.000594482
0.00915529
0.00358737
-0.0134734
0.00189058
0.0176415
0.00445948
0.012061
-0.00715501
-0.00287015
-0.00316657
0.0161612
0.00556361
0.00872396
0.00285591
0.0115237
0.00297039
0.0153282
-0.00590784
0.0187483
0.0102339
0.000897824
0.0166832
-0.00365485
0.00397474
0.014364
0.0104134
0.0113728
0.00859473
0.0114226
0.0130518
0.00478519
0.00892915
0.0129231
0.00714069
0.00319165
0.00862471
0.0190516
-0.00040336
0.00582215
0.00309159
0.0133344
0.00015823
0.00527517
0.00168075
0.0755688
0.150814
-0.00106595
-0.0393984
0.00221168
0.0561628
0.0462878
-0.00104824
-0.0122581
-0.0095922
-0.0448267
-0.0692226
-0.00536301
0.0304035
-0.0187969
-0.0281592
-0.00923536
-0.000397127
0.000800108
0.00898985
0.0112297
0.00969535
0.00983191
-0.0827546
0.00154407
-0.0201417
-0.0069753
-0.00362835
0.0869078
0.000189872
0.0795936
0.069747
-0.0256922
0.0166959
0.0194123
-0.00730764
0.0215719
0.0271583
0.00599126
0.138722
0.0264222
0.0498772
0.0233432
0.0270813
0.0185526
0.00455058
0.00989877
0.0117704
0.00126823
0.0150787
0.00733239
0.00835145
0.0123951
0.0110225
0.00609019
0.00790687
-0.00119049
0.0101019
-0.00105478
-0.00256364
0.00596144
0.0050227
0.00490121
0.0161117
0.0229164
0.0104383
0.0112418
0.0166341
0.00707218
0.00343427
0.0254168
0.00488275
0.00788549
0.0103058
0.00422778
0.0184343
0.00618357
0.0443045
0.0260437
-0.0264753
0.0303127
0.000601529
0.0200109
0.0192612
0.0322352
0.018914
0.00669092
0.0199658
0.0234669
-0.00782329
0.0196929
0.0197899
-0.00221865
0.00599286
0.00157977
0.0211095
0.0338251
0.0674575
0.0439801
0.0351112
-0.0153041
0.0380555
0.0113095
-0.00991802
0.0678112
-0.0570503
-0.226525
-0.0409131
-0.00955942
-0.0224325
-0.0208603
-0.0746747
-0.207184
0.0579248
-0.0057068
0.0459643
-0.0210978
-0.0517152
-0.0298273
0.0331009
-0.0447598
-0.0276339
0.0199101
-0.00649551
-0.00553226
0.000565573
-0.00184952
0.00539265
0.00105309
0.0963382
0.0187943
0.00660304
0.00101764
0.0116621
-0.021173
-0.00974643
-0.0726524
0.202255
-0.628082
-0.0182054
-0.38026
0.0181781
0.00924974
0.0107333
0.00914218
0.00371559
0.00541696
-0.00349717
-0.00224008
0.0119476
0.073308
0.0140709
0.00332301
0.010771
0.00524633
0.0167212
0.0171306
0.0125134
0.00148538
0.00899277
0.0118272
0.0059258
0.00392604
0.0167852
-0.0124386
0.00345383
0.0035034
-1.13388e-05
0.0221677
0.00110392
0.0096625
-0.0015182
0.0154455
-0.00703453
0.00877487
0.0134536
-0.0049878
0.000494971
0.00445351
-0.0050043
0.0126701
0.00721821
0.0137858
0.00716866
0.00562362
0.0205154
0.0203312
0.0264
0.00929376
-0.000289973
0.0019734
0.00547871
-0.00117465
0.00534732
0.0107991
0.0109577
0.0092279
0.00405505
0.0197885
0.0109182
0.0269889
0.012308
0.010322
0.0071557
0.00243053
0.0057043
-0.00239703
0.0151107
0.00865512
0.00580416
0.00693723
-0.0181338
-0.0964599
-0.0845975
0.0764202
0.10912
0.0126949
0.00860949
-0.00202305
-0.125881
-0.753526
0.00759773
0.0112855
0.000959705
0.0047707
0.00918629
0.179839
0.00325484
0.0429935
0.00262163
0.00100328
-0.00396605
0.00835806
-0.0340498
-0.0155904
0.01157
-0.0335938
-0.112533
0.0345002
0.225094
-0.0743758
-0.981944
-0.074624
-0.00657127
0.00433266
-0.013446
-0.0126977
0.00250201
0.00217275
-0.000886173
0.00259071
0.00545574
0.126562
0.0171476
-0.0706983
-0.131339
-0.0567077
0.00391158
-0.00639382
0.00267544
0.0188817
0.0138397
0.00445008
0.00647827
0.00724633
SCALARS CoVolArea double 1
LOOKUP_TABLE default
1933.45
1824.45
1152.33
1463.21
1167.24
1323.74
1224.38
1303.28
1724.27
1152.06
1688.5
999.047
6544.07
1981.81
1363.27
1177.05
2787.01
3011.4
3393.3
2175.27
287.083
2509.09
2010.03
5889.77
2660.49
1288.95
2143.57
2551.47
1435.69
1066.25
212.258
1718.16
2258.16
2805.74
1374.39
1541.18
5828.13
805.271
430.392
1354.9
2080.24
1782.97
1530.4
1652.37
508.873
1105.92
2152.75
1568.22
1565.43
2603.98
1607.91
1387.5
1056.03
1424.48
3484.24
915.632
1036.95
488.782
2235.75
3370.72
3089.35
2180.77
1698.81
2072.77
1648.27
1197.74
1918.49
1024.5
2721.69
323.244
1054.17
1200.85
1506.49
1978.41
801.888
4846.37
2314.23
1910.73
2140.9
1923.15
2435.35
1258.77
1760.75
947.926
1132.32
570.978
2359.77
2498.53
3190.41
2774.05
891.2
1776.19
1979.92
1574.4
2253.42
1700.7
1079.43
1739.33
4589.57
2539.25
224.717
2576.01
2226.84
1013.45
15590.4
3653.6
983.586
1342.86
694.088
1060.19
1071.05
275.931
1530.35
2086.43
1661.36
2133.45
1882.7
1615
1717.25
1517.35
744.898
1003.4
702.154
1617.83
885.495
1171.18
1187.26
1641.36
6715.16
442.798
390.721
7451.47
3446.24
8203.3
3672.13
964.357
1584.73
1076.05
186.18
1308.73
1537.63
2156.71
1039.51
1525.54
1576.94
2400.26
2611.1
2936
1735.62
1549.28
2072.09
1687.53
1824.89
72.7994
976.612
1733.47
5173.52
576.636
3125.12
5358.04
1113.92
1389.03
2189.18
690.37
836.549
3073.12
1062.7
4038.82
681.095
615.152
1279
1174.06
1204.83
1294.8
1869.04
1067.52
1129.7
3430.58
1475.86
3159.47
2078.59
2000.16
1183.83
1548.34
1602.54
1258.64
2080.32
2720.94
2907.33
3331.77
3439.95
2915
705.506
1900.05
1304.2
470.371
1521.85
806.774
2576.08
1930.39
1908.31
2008.11
1835.43
1214.43
1973.46
2499.5
2093.6
775.2
1035.3
2284.97
646.802
1170.51
617.526
438.056
948.966
3168.76
2688.69
2469.59
2846.92
3315.11
2396.55
1344.41
3573.01
2927.4
2640.2
3036.81
2480.79
3135.49
3074.73
3694.41
1097.02
2158.41
1647.28
1723.34
1580.59
2189.28
1880.77
2006.47
2123.54
1834.75
2383.68
3078.85
2706.22
2635.24
1455.43
3513.47
3982.9
1354.4
397.48
213.948
465.164
1404.84
1759.86
3166.04
2357.37
1260.4
2154.46
3552.83
1167.48
923.784
1723.98
827.7
544.281
174.22
1379.49
627.902
1750.46
2881.7
2027.99
1349.65
3302.09
484.309
1544.84
2586.5
5587.24
1731.69
518.385
2269.11
716.396
1877.34
68.1429
222.635
2186.14
1507.45
5253.71
3382.93
3413.81
5061.5
5834.57
613.751
2913.45
2341.66
815.875
1642.02
1322.96
638.192
5349.1
1883.97
3991.51
1246.43
2047.13
2655.45
2814.4
2378.28
1676.28
1599.58
1250.48
966.89
978.802
2778.84
1022.15
2432.58
1061.09
972.803
1683.35
2813.52
2900.76
3103.84
631.363
735.237
1627.45
831.995
556.882
498.239
1028.07
1502.05
1442.49
4038.15
2165.54
2822.97
1208.09
1702.93
2033.65
1990.42
1390.02
2257.52
2659.02
2508.9
1065.36
1416.54
3391.87
2575.15
4154.46
2495.08
1428.15
1527.7
2269.93
1535.24
2375.54
1704.68
2216.67
2010.77
1760.86
2728.35
1818.01
2036.89
2335.67
2313.7
1612.53
1304.31
1427.44
1654.26
1221.07
1902.18
1604.92
1263
1886.17
2116.09
1954.26
1489.74
2206.01
2300.61
3805.06
2448.92
2312.58
2935.71
2491.33
739.547
365.155
1953.79
592.575
886.706
221.845
2060.39
3510.2
9956.03
11466.1
829.889
1665.62
351.002
5047.93
5936.26
1479.32
5790.95
3620.89
3624.51
1740.39
1330.56
2826.95
2503.33
1384.37
2807.86
3762.38
2559.52
1282.16
341.349
221.699
404.824
1179.6
2204.33
1405.19
716.711
1085.25
1622.39
672.218
887.321
159.338
619.295
714.284
2128.19
1152.23
2422.36
1633.44
1786.24
1848.26
2350.36
1774.6
1640.24
997.336
1537.01
1539.58
1385.69
2090
1631.4
2106.55
2422.02
2930.51
1915.9
1996.82
2272.78
1340.36
1306.79
1242.68
1750.27
1552.12
1783.64
1219.26
886.677
1298.11
2460.57
1951.65
2215.45
1475.02
1347.7
769.441
1021.55
2514.28
1047.01
2961.51
1280.61
1440.28
1148.5
1455.53
1808.89
1521.82
1218.66
1322.14
1404.82
1855.58
3297.14
1409.15
3010.74
1085.49
889.904
727.472
563.587
528.263
1720.38
482.732
1392.16
11085.7
1444.17
132.333
530.207
1944.3
1051.02
673.6
2345.47
965.939
319.912
2496.36
11697.1
3868.41
8495.84
3865.61
2940.6
5093.66
993.434
1398.92
5092.93
3027.55
14868.5
9029.73
9172.82
1507.22
1753.67
183.452
594.816
1429.89
1379.24
1397.41
2852.3
1052.59
495.785
307.054
118.048
437.831
82.6861
1839.5
1706.64
1835.75
1605.12
1617.05
1773.78
2431.71
1852.89
1497.73
596.75
1008.33
1434.8
1352.58
1870.02
1153.84
1085.84
1427.83
1874.14
1616.37
2023.32
1440.41
1144.76
1260.09
2363.1
1337.08
1781.93
1786.88
1221.4
2795.75
1638.28
2817.5
1885.29
3029.6
1835.93
1686.24
3351.79
1440.42
2171.33
1842.62
1058.97
1504.15
899.768
1717.01
3300.64
728.844
1117.04
569.931
1128.15
1919.18
3686.89
2548.45
3019.84
2078.48
1734.01
1682.9
1982.76
2425.59
1370.1
1252.43
1029.52
1685.73
1968.39
2197.47
2391.65
2050.87
2146.65
1810.34
2269.03
2005.72
2475.92
1428.59
225.844
712.883
513.049
367.581
1434.91
1670.23
1629.07
586.745
99.9952
2100.97
1503.99
2053.17
1813.2
1868.24
445.952
1557.47
936.026
1924.68
2988.08
3021.28
2334.81
3324.5
7825.16
907.048
4128.31
790.286
907.307
296.409
1907.24
75.0011
572.565
1947.89
4297.93
4041.53
6911.13
2371.45
4471.46
4807.11
3536.18
4863.1
481.21
353.119
76.7306
456.978
1966.35
2019.39
5001.55
2657.37
1130.5
552.957
3198.06
1034.78
2846.6
SCALARS SignedDistance double 1
LOOKUP_TABLE default
39.513
48.5453
47.1081
44.8513
34.5136
44.1315
176.83
30.054
35.6175
39.6824
35.7121
37.2239
43.3899
41.0207
49.3663
49.7634
38.5069
36.6102
35.4114
47.415
36.777
41.2332
39.9837
43.2569
37.22
37.8121
40.3852
36.7099
73.6835
77.523
38.5631
81.0229
39.093
39.4265
33.0724
30.953
97.7994
59.2949
59.8182
59.4472
43.1423
40.0198
51.6392
47.3485
33.1061
36.3439
38.5577
40.7089
39.0924
41.1834
38.5008
37.8192
38.9435
38.2128
46.547
39.1941
38.0061
34.9181
37.9896
45.9351
49.2942
38.6161
30.3353
33.8803
29.4558
45.3383
38.9209
39.312
41.2512
45.1322
31.7918
35.0662
45.808
43.7511
39.5916
48.4547
41.0406
47.8521
48.6295
40.2833
40.1494
42.0711
38.367
37.939
35.0727
36.867
36.8401
35.9415
36.6953
35.9461
35.9508
39.4933
38.4634
32.9772
45.5172
31.2347
34.4035
35.7745
41.195
39.5216
41.0246
41.1705
54.1738
96.5389
137.007
47.3043
40.4759
38.5422
41.7132
34.8564
29.7298
49.5597
35.1863
34.8655
37.1687
37.4916
38.2331
40.8222
28.1656
35.9935
38.008
44.2676
70.7285
25.0257
45.7025
67.4082
44.5847
37.7864
53.337
65.8143
68.2387
58.4722
50.9469
191.389
64.1677
44.4869
35.8342
56.0866
54.2992
33.3678
33.9936
37.9999
39.1843
53.783
38.8588
42.0987
42.3508
36.8008
37.0442
38.1348
32.0801
32.2502
36.2689
58.8875
53.7794
33.1908
42.8774
92.1833
41.4301
58.6406
44.7346
45.8492
46.9823
35.4968
32.7865
47.2601
42.1906
50.6494
37.5819
37.2754
49.3593
38.6527
39.1799
38.5924
37.7233
37.5451
36.8951
41.1286
39.0178
41.3648
55.6151
53.1442
41.0083
37.3191
36.9481
37.0776
40.1573
46.9093
43.3653
42.3159
46.6258
40.4961
34.7458
33.913
38.5052
36.4094
40.23
38.1985
38.8574
55.5433
38.95
48.4039
38.4121
38.4852
38.2429
48.217
36.1752
33.9199
36.5168
37.8088
37.9542
39.8464
37.0829
35.3498
38.0683
40.9881
42.3241
38.0231
34.2214
41.1269
41.1091
37.4877
36.1571
34.5075
33.5333
47.2361
35.9393
33.9278
35.86
43.5636
36.1557
42.2596
27.733
30.6569
27.4984
33.1635
32.1535
32.5237
31.9357
33.0657
32.4364
38.0163
35.3271
35.7635
65.2497
45.449
44.2036
65.811
33.5984
44.1366
36.2519
33.7782
27.8188
48.0093
29.8791
46.8307
29.4398
32.8572
36.0372
31.7178
33.1374
29.9183
33.8629
45.1334
41.139
33.9146
39.9125
53.7462
43.449
32.376
45.8742
36.2209
39.9394
46.2246
48.8131
39.5711
40.2901
44.8021
41.1287
55.0784
45.8
45.2672
40.6363
41.5617
39.9553
40.9538
43.2651
43.9139
46.7242
44.1058
45.4338
45.6714
39.6201
49.9699
49.0474
40.7527
45.3926
45.9132
45.7375
41.0901
52.962
42.303
47.9164
42.0968
38.4838
38.9254
40.0792
40.3239
40.2165
42.6344
39.2922
43.0446
38.5366
38.5826
39.1825
41.1332
45.8225
45.0108
37.9684
38.6154
40.5623
36.3322
35.5687
36.2053
36.7411
37.2037
37.8717
41.2302
36.565
39.373
36.2918
38.9436
34.6932
35.3548
34.6957
43.9211
36.5932
43.3493
36.2276
37.7924
38.9175
42.8158
44.7405
40.3159
40.0266
39.8593
40.5432
41.02
37.5123
37.7871
42.8684
34.0713
38.6376
42.4792
36.9569
45.0079
39.059
43.3683
34.3641
34.607
37.6103
34.9315
34.9979
35.9175
33.8381
33.6653
35.8148
40.8024
39.3086
46.7429
37.6989
35.9848
47.498
44.0641
42.5582
40.8524
53.9126
42.8358
43.0585
57.0376
40.0637
43.8903
41.3077
47.2914
88.2555
63.0512
169.75
83.4403
83.9955
73.2215
84.1065
110.915
117.689
71.8047
112.497
73.5496
29.8833
34.42
41.9457
29.7715
66.7018
34.9962
60.5405
44.508
52.188
36.9861
38.6512
35.6998
52.1436
50.1941
34.0962
33.4926
43.0339
40.2659
32.5582
42.5574
46.8871
33.0566
37.1236
49.2154
27.746
38.4167
34.7343
34.5997
44.1563
38.1201
33.9853
35.9777
36.4019
32.7966
35.209
39.4295
39.6178
42.7335
36.7562
40.8457
42.9503
37.2619
38.4491
37.7544
32.5337
30.7493
34.9036
32.7072
27.5479
29.4037
38.2647
35.7387
39.9042
36.3557
34.7884
35.0209
54.6199
65.2024
43.4371
41.2217
52.0144
50.2223
55.8057
33.5732
25.8741
45.6636
25.4489
27.7502
26.014
40.3533
56.5602
53.8721
47.4508
62.736
52.4243
61.5504
35.9603
47.1382
45.8733
44.9699
46.8457
43.5985
74.4451
63.3037
63.023
79.8791
55.5557
68.7202
51.7729
62.8906
72.6609
51.2294
68.7901
60.2412
77.3795
85.6248
96.0481
176.98
125.343
51.6404
92.2034
52.4828
47.3723
106.93
65.6591
174.97
115.776
95.9435
48.6208
37.7361
58.8365
56.6515
37.4048
37.2697
33.8516
62.011
49.7621
53.3841
54.3541
60.815
54.2506
57.0111
35.9094
36.2035
36.6477
37.6065
42.962
44.9638
37.7035
45.102
35.8033
56.9835
45.2383
35.8125
35.7483
39.7135
34.8763
34.8136
37.7409
43.5016
39.5326
39.909
40.0243
47.4034
37.2546
46.4428
42.1899
41.4436
46.6113
41.2321
44.2434
41.7586
44.3627
41.9325
45.6995
42.6
38.0109
38.4566
39.3132
37.9839
47.4554
37.7264
38.9782
37.5249
37.8764
40.3761
37.2474
36.0015
35.8272
38.5196
41.447
46.5658
42.1095
45.4966
34.3614
31.8303
33.2381
34.5852
35.6699
31.9106
37.5095
36.8088
26.8614
28.7146
35.3721
37.7636
38.0054
41.0012
36.2693
32.1765
35.02
33.4262
57.7569
59.3959
58.442
65.3225
66.3276
56.7809
32.8868
39.0929
61.3344
60.0311
36.6813
48.5067
36.4664
40.3745
35.2996
60.1118
37.8122
58.8176
36.0518
43.1922
43.7496
37.7348
67.2164
50.5463
117.264
99.181
76.2978
76.6749
42.5585
66.677
37.9749
40.6471
57.4172
72.8891
117.643
63.0574
44.5729
45.8712
44.5109
43.0371
43.8591
51.5569
46.919
49.1547
48.3843
50.7675
47.5533
49.4286
46.8258
41.3867
38.9034
44.3721
44.1763
45.0626
