# vtk DataFile Version 4.2
vtk output
ASCII
DATASET POLYDATA
POINTS 642 double
-235.717 350.201 91.7701
228.266 341.001 85.4488
-241.213 -412.313 112.079
231.96 -406.699 114.798
-2.797 -317.779 527.398
-3.42374 166.297 466.203
0.460593 -249.108 -205.832
-1.4353 231.364 -326.729
387.199 3.76346 -144.616
345.715 -43.8782 325.435
-400.541 4.94815 -148.486
-361.497 -44.9185 329.205
-319.733 183.169 207.156
-207.774 81.166 445.769
-135.289 321.377 289.556
127.121 318.355 287.694
-0.545687 411.449 85.7961
143.623 341.749 -151.434
-146.33 346.796 -154.058
-248.838 124.136 -282.512
-419.028 223.366 -68.8467
-430.281 -30.6728 74.3207
202.927 77.9284 439.119
311.188 170.66 205.605
-214.611 -212.369 476.467
-1.58568 -39.4955 548.416
-356.499 -254.776 -35.5376
-355.912 -268.194 241.078
-3.44139 15.3687 -355.459
-224.157 -161.011 -246.603
403.17 216.621 -65.2817
243.646 124.778 -282.757
343.109 -263.782 236.931
204.005 -210.962 469.948
139.529 -440.943 358.234
-143.9 -444.56 361.736
-2.62263 -467.898 158.581
-152.956 -368.637 -108.899
146.883 -367.965 -108.57
220.442 -161.529 -241.081
347.357 -249.768 -36.5543
420.173 -29.2537 70.9664
-295.888 282.463 147.82
-240.497 277.613 256.249
-189.527 357.782 201.265
-297.387 23.3203 399.183
-284.186 127.201 346.371
-355.171 61.058 287.044
-69.5988 255.485 384.282
-168.167 210.215 379.28
-99.7788 131.399 476.178
-85.4302 390.926 200.06
-121.196 404.843 93.425
63.6216 254.315 382.091
-0.586534 325.926 302.377
115.703 403.187 90.6655
78.1694 389.746 200.296
179.855 351.658 199.213
-74.6137 404.53 -33.0252
-214.399 350.132 -39.7243
209.115 346.235 -36.2404
70.9098 402.476 -30.6306
-76.8867 306.336 -255.264
-2.11273 369.763 -168.667
72.0611 304.431 -253.798
-309.379 301.632 -115.69
-348.222 291.312 -20.4607
-122.512 185.825 -328.383
-211.888 253.995 -234.781
-440.526 116.332 -123.828
-360.38 184.724 -198.668
-349.568 77.8795 -229.779
-401.69 209.592 42.3138
-435.195 3.73206 -47.6144
-457.446 117.98 -19.6433
-395.681 89.3928 119.327
-403.899 -53.2265 216.765
226.795 270.49 253.635
284.55 274.361 136.537
92.7 129.642 470.754
161.845 206.239 375.345
341.63 60.8289 283.741
275.779 123.434 341.433
287.573 20.5655 394.189
-103.487 32.1099 523.925
-3.32227 73.0533 526.998
-301.118 -120.324 406.2
-227.538 -41.6918 470.738
-1.49034 -196.139 540.824
-113.131 -136.944 529.421
-124.48 -266.259 524.71
-412.529 -158.649 168.102
-373.336 -158.45 291.045
-387.537 -139.607 -96.9887
-415.683 -146.103 22.9903
-312.471 -356.074 178.822
-380.521 -275.098 103.088
-312.435 -343.934 38.4082
-246.795 -4.42001 -273.719
-321.144 -87.7593 -206.259
-1.72917 113.02 -377.16
-113.24 81.6098 -351.872
-140.004 -208.379 -252.791
-124.26 -76.995 -308.545
2.7891 -87.0679 -279.695
205.259 245.999 -229.935
118.202 183.642 -325.408
334.99 286.508 -16.0201
298.15 297.229 -112.79
340.87 72.1281 -225.468
347.979 180.968 -192.135
421.168 109.723 -117.34
301.833 -349.45 178.443
251.049 -364.769 310.319
183.421 -438.292 250.854
292.46 -113.38 399.711
290.129 -241.92 369.969
359.877 -155.404 284.932
71.1105 -397.536 461.512
187.969 -332.466 441.974
118.755 -264.627 520.848
66.9543 -493.312 261.107
117.979 -456.971 130.551
-75.9465 -400.01 464.585
-1.963 -476.697 378.864
-122.746 -458.972 132.182
-70.8356 -496.682 261.088
-190.949 -444.375 251.681
107.018 -414.39 7.97159
191.704 -396.719 -6.27001
-195.863 -403.062 -4.94425
-112.472 -413.465 8.96795
110.013 -306.366 -176.437
0.40403 -331.803 -99.0389
-114.596 -305.289 -176.446
258.173 -326.623 -81.5241
302.939 -337.379 36.1286
130.69 -208.747 -252.434
187.444 -279.57 -190.435
379.187 -137.435 -94.1012
300.92 -213.658 -153.96
315.386 -87.3667 -201.519
366.447 -269.721 102.264
421.484 -1.00536 -42.5042
407.046 -141.199 15.7173
394.865 -156.92 169.753
387.02 -53.994 211.354
106.381 -136.493 527.206
222.324 -42.0078 465.884
96.4222 30.775 518.042
-262.314 -369.762 314.265
-195.696 -335.975 446.229
-302.601 -244.309 376.947
-190.223 -283.028 -195.098
-263.697 -329.82 -82.812
-307.411 -215.614 -157.309
243.963 -1.79444 -265.766
116.246 -80.9448 -306.924
107.641 84.8021 -349.039
381.186 81.6496 117.462
435.527 111.753 -19.0983
384.047 205.626 42.2073
-269.761 319.981 119.303
-243.254 327.204 181.536
-211.681 360.91 151.704
-281.442 238.849 235.859
-267.549 285.828 210.268
-311.76 243.209 171.512
-164.07 345.58 245.95
-218.577 320.709 231.631
-190.509 305.082 275.085
-332.347 -10.1375 366.742
-331.404 43.1787 345.65
-361.85 9.07089 309.997
-252.712 104.63 398.3
-293.485 76.7042 376.215
-257.26 53.4271 424.508
-342.526 112.692 256.627
-322.588 96.0945 319.627
-305.093 152.365 285.418
-35.5526 210.554 423.995
-83.3023 192.196 430.525
-52.3926 150.965 476.202
-150.305 269.972 336.842
-119.33 237.778 384.134
-101.788 288.597 340.443
-151.619 107.561 464.676
-136.105 168.61 426.455
-189.179 141.04 417.329
-258.182 203.595 297.609
-227.748 169.889 364.312
-204.54 246.27 318.135
-161.025 387.235 151.915
-178.28 383.884 96.3703
-113.915 363.503 245.253
-136.994 379.939 203.199
-70.7487 417.37 88.2363
-105.197 403.557 149.036
-48.5666 404.958 144.05
29.6352 210.603 423.199
-2.48455 256.143 386.418
69.1872 326.236 297.95
34.6212 292.456 347.132
95.0454 286.743 337.635
-39.2027 292.199 348.028
-75.5612 326.064 300.133
167.916 378.948 92.4871
152.331 382.212 149.335
201.489 353.674 149.621
44.7251 406.885 144.401
97.4179 401.093 146.843
67.0566 416.124 88.4929
155.127 340.813 243.647
129.201 375.761 202.145
105.159 360.892 244.426
-44.5714 363.197 248.819
41.7519 365.177 250.267
-0.126989 388.289 199.477
-158.235 390.413 32.4768
-227.4 350.258 22.1828
-42.7643 417.406 28.1346
-98.3702 410.957 31.4588
-181.876 351.546 -97.3077
-133.361 388.026 -33.8846
-108.822 382.384 -96.2753
222.334 345.491 18.3482
153.06 387.5 31.1708
104.257 378.212 -94.3407
131.472 384.956 -30.5099
179.915 344.745 -95.7426
95.5038 409.161 33.3127
39.6718 417.85 28.996
-39.3967 272.682 -295.489
-1.60569 310.123 -260.456
35.8403 272.026 -294.933
-72.6936 363.662 -164.909
-39.3059 342.28 -214.441
-111.754 331.568 -208.058
106.109 328.213 -205.767
35.2743 341.47 -214.102
67.8149 361.169 -164.226
-2.59113 408.252 -34.7249
34.1378 391.006 -103.282
-39.3211 392.641 -103.54
-295.307 326.27 -36.0601
-291.431 307.824 21.0419
-235.526 315.698 -130.698
-275.857 331.386 -80.9178
-386.864 264.893 -41.81
-336.088 306.836 -62.7829
-368.638 269.633 -93.348
-62.3968 211.727 -332.098
-100.884 251.673 -298.21
-233.253 189.431 -262.997
-162.198 223.726 -290.176
-180.283 154.001 -315.744
-139.233 284.463 -253.153
-182.363 305.156 -199.371
-422.979 69.4734 -140.08
-400.636 98.4078 -183.503
-381.326 44.4343 -192.686
-395.214 207.276 -136.367
-407.024 149.659 -166.198
-436.781 166.219 -96.9759
-312.109 104.082 -258.148
-363.756 129.3 -223.427
-318.92 156 -245.118
-272.255 281.404 -181.443
-300.002 224.638 -218.364
-338.895 250.492 -162.632
-322.311 276.807 55.7889
-415.364 221.356 -12.3079
-381.55 252.1 11.1925
-347.569 237.184 84.1497
-360.58 196.72 105.817
-423.791 4.4151 -97.6703
-447.857 72.4085 -84.2485
-441.223 68.6752 11.14
-453.24 76.396 -35.3992
-434.181 -6.72378 11.6785
-463.461 120.062 -65.4281
-451.284 163.659 -42.8136
-383.083 7.35893 256.751
-386.182 -47.6593 275.646
-365.969 127.718 163.41
-374.859 65.01 223.225
-417.283 -48.8448 148.988
-398.818 11.099 185.672
-415.971 33.4599 90.6633
-437.682 163.297 13.666
-437.035 116.146 36.8365
-412.73 156.973 68.1565
231.154 319.749 178.281
262.104 310.309 110.591
180.202 299.634 272.159
207.132 314.583 228.084
298.437 230.623 160.818
252.382 280.339 205.367
265.83 226.401 233.724
45.0697 150.081 473.41
77.1033 191.539 427.075
183.756 138.601 411.405
130.728 167.233 421.09
146.354 105.363 457.127
113.258 235.196 380.684
142.69 266.012 334.057
346.427 9.9665 306.883
319.505 41.424 341.033
319.742 -9.8673 363.083
296.824 144.466 284.509
312.077 93.9628 314.877
330.721 108.783 255.632
249.258 49.7942 419.094
284.023 73.8801 370.597
244.886 101.55 392.491
196.057 239.649 315.921
220.746 165.488 360.41
248.829 194.645 298.115
-53.2763 105.234 508.039
-3.55203 120.816 501.688
-153.951 58.4479 489.358
-103.543 82.5388 504.76
-3.23984 21.7068 543.156
-54.959 52.7586 531.46
-54.8315 -0.0270792 543.591
-338.306 -76.4006 368.594
-305.794 -41.9322 405.293
-222.65 -127.763 469.332
-268.578 -79.9581 441.352
-260.928 -168.732 438.682
-265.982 -8.11143 438.164
-221.536 22.1689 462.142
-1.78976 -260.502 537.921
-65.9676 -238.888 538.71
-62.4495 -295.272 528.984
-55.6745 -82.1679 544.006
-62.5966 -165.229 539.569
-0.877886 -110.453 548.124
-172.524 -241.754 507.604
-122.409 -213.789 529.841
-162.431 -186.253 506.501
-165.204 -5.21887 499.741
-167.399 -87.1501 504.506
-107.38 -40.6901 530.63
-396.984 -102.277 253.934
-372.183 -99.5481 310.697
-421.707 -102.613 129.836
-415.957 -104.849 195.046
-366.901 -215.537 269.09
-397.892 -157.164 229.444
-390.437 -214.008 202.109
-394.347 -72.3017 -122.554
-416.608 -75.2866 -70.1189
-390.462 -201.602 -6.70602
-407.921 -142.584 -42.591
-373.101 -196.696 -69.1839
-428.8 -83.2406 -13.4406
-430.613 -93.2652 50.3882
-279.92 -388.36 145.691
-319.226 -354.898 106.31
-280.485 -381.441 75.1101
-374.631 -274.817 166.914
-352.269 -316.989 137.865
-337.992 -315.182 210.744
-337.858 -301.687 0.570676
-350.979 -312.814 71.1641
-372.555 -268.915 37.6054
-420.028 -160.373 96.3461
-403.684 -216.973 68.2843
-404.744 -220.745 133.463
-338.597 2.81159 -219.901
-361.477 -41.0823 -180.183
-253.599 73.072 -283.193
-305.617 42.2685 -254.201
-273.377 -128.422 -229.095
-289.358 -46.381 -240.955
-236.031 -90.4869 -264.286
-1.61764 170.332 -356.006
-61.1886 148.512 -359.409
-52.3437 49.3735 -360.159
-58.3129 95.1478 -370.209
-2.21355 68.3872 -370.282
-124.294 124.821 -352.043
-177.922 105.84 -329.365
-103.536 -222.095 -237.328
-99.5366 -163.113 -266.529
1.11753 -172.753 -243.209
-174.014 -127.238 -282.124
-137.037 -147.796 -279.746
-174.692 -190.701 -259.166
-2.18873 -25.1494 -332.83
-84.0613 -76.5938 -302.386
-55.202 -19.867 -335.668
-174.826 46.6307 -310.572
-108.815 5.41853 -330.256
[...]
POINT_DATA 642
SCALARS Mean_Curvature double 1
LOOKUP_TABLE default
0.0051832
0.00320605
0.0061346
0.00535087
0.0099763
0.00469944
-0.00915448
0.00661514
0.00261096
0.00565608
0.00419758
0.00577631
-0.00187428
0.00374126
0.00412319
0.00451358
-0.00148166
0.00362196
0.00394918
0.00295802
0.0108706
0.00518521
0.00402539
-0.000241012
0.00407889
0.00415284
0.00421555
0.00332714
0.00863077
0.00295886
0.011293
0.00660847
0.00361196
0.00370498
0.00445509
0.00460556
-9.74901e-05
0.0124056
0.0124702
0.00403155
0.00445877
0.00698879
0.00466247
0.00512542
0.00686486
0.00536407
0.00436283
0.00461893
0.00579887
0.00367417
0.00529232
0.00728143
0.00366916
0.0055333
0.000681233
0.0052532
0.007656
0.00684154
0.00402474
-0.00100785
-0.000578258
0.00344509
0.00554165
0.00564353
0.00559501
0.0061939
0.0062981
0.00443525
0.00152641
0.011798
0.00597238
0.00459255
0.00788086
0.00263633
0.0118239
-0.0013683
0.00238939
0.00461226
0.00384577
0.00426954
0.00364681
0.00521727
0.00461323
0.00535051
0.00679564
0.00651958
0.00222657
0.00471245
0.000975593
0.00340431
0.00910222
0.00365363
0.00375791
0.0051539
0.00166829
0.00420534
0.00629364
0.00415722
0.000968221
0.00399685
0.0132979
0.00564702
0.0081719
0.00972433
-0.00713211
-0.00068299
0.0041574
0.00584703
0.00527867
0.00738863
0.0064855
0.00773981
0.00424526
0.00397419
0.00206456
0.00392133
0.00518014
0.0041154
0.00562019
0.00602088
0.00919549
0.00637136
0.00616657
0.00636115
0.00566067
0.00580051
0.00718567
0.00388392
0.000239308
0.0029727
0.00385544
-0.000926051
0.000575672
-0.0131754
-0.000308064
0.0055901
0.00413942
0.0107742
0.00485471
0.00530228
0.00517779
0.00482735
0.00629447
0.00223202
0.0051365
0.00418864
0.0022606
0.00398697
0.00591238
0.00590511
0.00445677
0.00555044
0.00439666
0.00662511
0.00521138
0.00510634
0.000326583
0.0103239
0.0056037
-0.00224316
0.00781128
0.00747218
0.00469532
0.00625735
0.00658037
0.0039498
0.00686475
0.00420495
0.00691535
0.00692899
0.00488951
0.00480999
0.00511626
0.00492227
0.00479394
0.00534382
0.00528229
0.00304469
0.00487491
0.00277443
0.00184338
0.00237716
0.00590094
0.00394777
0.00514154
0.00462523
0.00343717
0.00111962
0.00243669
0.000609249
0.00213068
0.0027527
0.00706054
0.00439989
0.00715249
0.00729589
0.00873506
0.00750527
0.00170824
0.00258863
0.00331047
0.00317004
0.00462672
0.00420248
0.00382536
0.00298137
0.00302043
0.00667629
0.00602757
0.00442679
0.00607087
0.00832302
0.00680749
0.00715583
0.00677233
0.00220253
0.00501174
0.00205099
0.00446136
0.000829336
0.0049247
0.0057904
0.00193718
0.00270885
0.00495926
0.00106127
0.00528249
0.00406746
0.00323598
-0.000875422
0.00594507
0.00608476
0.00566035
0.00543575
0.00607632
0.00395239
0.00483092
0.00549258
0.00499177
0.00530844
0.00390903
0.00274244
0.00445228
0.00470579
0.00857664
-0.00294157
-0.00193421
0.010345
0.0115694
0.0130896
0.00678775
0.00499661
0.0056903
-0.000590106
0.00488207
0.00482676
0.00516944
0.00345
0.0041697
0.00839686
0.00528766
0.0053761
0.0079712
0.00551367
0.00807832
0.0117462
0.00722541
0.00732098
0.0064789
0.00608182
0.000237226
0.00748968
0.00639349
0.00132409
-0.00180645
0.00289931
0.00641311
0.00162738
0.00726129
0.000264971
0.0187532
0.0111583
0.00422746
0.00452831
0.000169144
0.00287304
0.00203257
0.00129283
-0.00123243
0.00815079
0.00670604
0.00647315
0.00584094
0.00407455
0.0045516
0.00692859
-5.91695e-05
0.00660125
0.000656161
0.00539344
0.00223262
0.00271836
0.00130613
0.00282092
0.00497071
0.00381303
0.00485246
0.00510477
0.00565463
0.00366029
0.00537247
0.00393061
0.00504244
0.00519788
0.00469188
0.00272601
0.00258366
0.00159139
0.0071351
0.00628542
0.00430202
0.00635878
0.00699017
0.00731177
0.00717879
0.00580904
0.00483848
0.00050911
0.00466952
0.00166973
0.00545468
0.00450723
0.00373371
0.00520458
0.00640492
0.00350678
0.00184692
0.00384287
0.0105991
0.00742661
0.000121353
0.00294497
0.00242428
0.00406879
0.00524201
0.00484269
0.00182831
0.00800688
0.00299828
0.00395425
0.00344941
0.00362068
0.00386439
0.00175688
0.00605483
0.00322658
0.00544367
0.00492331
0.00455644
0.00636967
0.00541641
0.0051287
0.00585943
0.00352392
0.00413355
0.00547045
0.00454225
0.00499304
0.0055404
0.00691474
0.00376481
0.00186523
0.00326995
0.0046085
0.00335715
0.00177139
0.00369671
0.00451229
0.00510526
0.00420927
0.0109534
0.0070704
0.0108115
0.0107806
0.000573468
0.000920916
-0.00324054
0.00587166
0.00723296
0.00988479
0.00425895
-0.00151002
0.00684704
-0.00252978
0.000960773
0.0039146
0.00540292
0.00517387
0.00241213
0.00502699
0.00458752
0.00484807
0.000303377
0.000528165
0.00831443
0.00721233
0.0126938
0.0108656
0.00821197
0.00663995
0.00544272
0.00935387
0.00672856
0.00706574
0.00788976
0.00838548
0.00698868
0.00686279
0.00529054
0.00641046
0.00603632
0.00653374
0.00378158
0.00517431
0.00415982
0.00378599
0.0041662
0.00431506
0.0100941
0.00386152
0.00637497
0.0044963
0.00321408
0.00421867
0.00473075
0.0033391
0.000176313
0.00316474
0.00372601
0.00402137
0.00651167
0.00474331
0.00565986
0.00563378
0.00544805
0.00500326
0.00945282
0.00717469
0.00698599
0.00385971
0.00442874
0.00521395
0.00265433
0.00287662
0.00768599
0.0060813
0.00514511
0.00416547
0.0043893
0.00680567
0.00675476
0.00504816
0.00689343
0.00545825
0.00726775
0.00467998
0.0032283
0.00262871
0.00212044
0.00293665
0.00573072
0.00504501
0.00800432
0.00644196
0.0066589
0.0107806
0.0122003
0.00787227
0.00559086
0.00332184
-0.00120481
0.00824662
0.00868359
0.0105089
0.00818861
0.00359527
0.00848013
0.00545593
0.0105269
0.0107346
0.00467488
-0.00113872
0.0123534
-0.0131825
0.0122318
0.00112459
0.0113236
0.00957839
0.00661284
0.0111889
0.000349449
-0.00710038
0.00546699
0.00531377
0.00380063
0.00488793
0.00396788
0.00470861
0.00419616
0.00508299
0.00553745
0.00164262
0.00760329
0.00496165
0.0094991
0.00554226
0.0121146
0.00898169
0.00443186
0.00503799
0.00257615
0.00477948
0.00383951
0.00365199
0.0026772
0.00360053
0.005358
0.00469352
0.005344
0.00541653
0.00569042
0.00364773
0.00565984
0.00562193
0.00483801
0.00158436
0.00457384
0.00604542
0.00594328
0.00143667
0.0063175
0.00186671
0.00616318
0.00274922
0.00339357
0.00532376
0.00185491
0.00630814
0.000616142
0.00535591
0.000113858
0.00702964
0.00734305
-0.000834882
0.00703326
0.00160401
0.00636641
0.00579208
0.00495913
0.00588124
0.00488776
0.00196295
0.00705023
0.00697079
0.00739394
0.00567014
0.00304334
0.00286886
0.00356054
0.00118408
0.0038658
0.00591616
0.00452097
0.00427423
0.00396453
0.00500817
0.00785793
0.00553228
0.00541151
0.00544458
0.00213594
0.00405886
0.00436867
0.00643935
0.00434895
0.00534128
0.00490229
0.00427908
0.00496243
0.0112451
0.0118077
0.0129438
0.00408982
0.00324815
0.00521775
0.00449297
0.00371881
0.0044733
0.00471153
0.00487772
0.00383014
0.00389727
0.00473619
0.00409027
0.00531108
0.00481781
0.00319016
0.00352813
0.00215479
0.00489389
0.00379729
0.00201632
0.00477806
0.00187979
0.00912119
0.0036256
0.0049913
0.0104517
0.0119814
0.0112955
0.00406629
0.0027571
-0.000258972
-0.00329498
0.00384001
0.00201856
0.000334626
0.00285014
2.66058e-05
0.00866408
0.0118074
0.016136
0.00744763
0.00162525
0.00315045
-0.00101171
0.00271127
0.00611608
0.00701587
0.00476414
0.00791507
0.00561012
SCALARS CoVolArea double 1
LOOKUP_TABLE default
3817.48
3853.6
3265.28
3193.37
3194.36
2867.73
4790.03
3386.55
3404.33
2701.45
3566.89
2722.51
6123.53
3873.99
3530.62
3451.62
4462.83
4898.77
4970.08
4532.48
3919.85
5128.91
3811.55
5941.04
4073.48
3842.68
4154.93
4422.71
3107.98
3998.76
3545.57
4111.9
4161.08
4163.22
4402.65
4539.91
4679.89
2513.19
2538.83
3916.87
3994.09
4335
4220.84
3779.66
2999.18
3248.3
4192.94
3473.44
3647.71
4508.97
3431.62
3762.07
3524.74
3608.81
4630.09
3343.19
3587.02
2927.79
4434.05
5175.58
4862.18
4560.53
4083.24
4482.77
4007.78
4279.54
3354.95
4265.83
5604.11
3279.2
4416.9
3414.39
3597.79
4357.66
2580.97
5980.4
3851.66
3830.93
4175.83
3529.77
4353.09
3197.38
3874.69
3055.4
3651.83
2895.76
4234.37
4620.56
4714.49
5015.68
3581.31
4024.6
3985.32
3926.77
4440.04
4072.18
3701.13
3674.99
5861.44
4357.32
3259.18
3932.7
2374.75
4035.88
7793.26
5672.07
4269.61
2998.61
4029.64
3223.19
4233.32
3272.08
3874.98
4389.77
3944.95
4084.63
4221.05
3674.55
4297.93
4284.84
3411.74
3677.88
3988.74
4291.84
4504.47
3948
3691.55
4052.15
4938.91
3725.24
3690.57
5317.52
3318.01
6913.96
3508.3
3639.77
3589.69
2418
3455.46
3657.06
3844.73
4189.79
3620.31
4165.77
3971.64
4162.62
3966.93
4941.95
4165.15
3826.66
4496
4519.19
4324.32
3454.65
3874.46
3968.87
5642.6
4253.49
3981.88
5937.05
2684.73
3297.93
4389.34
3399.69
3430.41
4529.28
3282.06
4501.72
2894.17
2939.22
3624.64
3232.42
3274.86
3265.42
3910.17
3202.39
3235.18
4784.92
3456.89
4839.74
3818.28
3829.19
3234.71
3947.81
3736.49
3456
3637.33
4076.34
4431.59
5261.7
5255.12
4999.68
3277.67
4143.21
3450.78
2937.88
3584.72
3231.71
4469.16
3803.69
3856.52
3917.82
3810.16
3401.48
3882.6
4160.51
4159.11
3282.58
3586.04
4320.77
3186.57
3416.82
2834.95
2952.17
3288.12
4798.14
4535.81
4905.63
4833.51
5103.94
4358.31
3783.26
5063.55
4883.8
4881.41
4798.54
4463.54
5074.15
4839.02
5035.46
3640.47
4335.7
4010.45
4106.69
3958.28
4573.85
4098.99
4220.66
4219.06
4049.62
4606.57
5112.33
5171.16
5101.93
3792.84
4702.62
5106.12
3929.8
2950.76
2970.93
4234.27
4170.68
4176.6
5793.27
4914.43
4458.43
4555.5
5285.93
3582.31
3367.87
3856.26
4760.41
3885.57
3718.75
3402.03
3374.98
4546.95
5485.66
5537.91
5092.04
4650.23
3345.02
3512.92
4291.57
5484.35
4200.96
3388.45
4157.53
3155.01
4649.61
2687.31
3265.95
3859.94
3377.19
6401.49
5077.97
4751.16
5584.47
5948.64
3271.25
4157.45
4678.75
3411.3
4185.66
3562.19
2841.61
4874.67
3579.24
4903.27
3262.73
3844.66
4288.8
4061.38
3734.81
3688.06
3887.68
3165.27
3066.51
3031.23
4527.39
3121.13
4234.41
3090.9
3081.06
3752.24
4856.87
4934.07
5054.65
2930.18
2860.11
3850.31
3060.76
3017.03
2932.72
3689.81
3677.08
3633.69
5307.84
4199.85
4227.46
3465.71
3938.11
3832.32
3963.8
3834.44
4660.78
4690.59
4610.52
3140.64
3595.83
4653.81
4918.3
5945.55
5093.52
3492.81
3606.02
4407.94
3558.02
4102.85
3804.31
4316.86
4437.26
4297.73
4568.83
4022.84
3878.1
4517.43
4760.35
3912.68
3605.92
3545.66
4073.09
3628.27
4065.82
3671.43
3499.42
4132.32
4542.71
4541.5
4272.69
4230.98
4456.43
4761.29
4226.79
4052.69
4684.91
4931.87
4068.68
3960.52
3561.89
3000.94
2692.42
3504.79
4088.12
4589.48
5620.01
8025.49
4026.82
3043.7
2953.02
4218.55
4866.07
3736.19
6072.18
5365.33
5957.79
4151.02
4121.86
5215.97
4650.93
4195.62
4851.92
5309.91
4187.33
3535.99
4046.21
2924.89
2842.97
3809.85
4660.6
3527.73
3273.97
3326.98
4315.79
3438.62
3318.91
3502.41
3824.2
4414.43
5309.32
4913.32
5349.4
3790.99
4165.72
4168.23
4473.24
4099.37
3795.54
3566.42
3877.26
4213.08
3432.94
4006.15
3443.89
4167.3
4134.57
4462.79
3845.98
3920.42
4341.37
4100.8
4283.41
3849.18
4488.18
4262.51
4293.43
3068.9
3732.55
3778.91
4988.14
4729.96
4890.82
4354.65
4211.78
4163.52
3605.03
3747.04
3831.43
3926.32
4029.95
4232.29
4709.6
4319.05
4314.22
4302.28
4693.1
4303.93
4410.18
4457.21
3850.09
3744.6
3741.49
3776.71
3688.7
4285.84
4438.7
4438.71
3925.12
3804.89
3854.89
6639.25
3380.19
3008.92
2990.13
2836.52
3784.63
3647.49
3001.48
2927.2
2971.61
3527.73
6874.32
4177.84
5997.11
4329.37
3765.67
4800
2169.81
2274.92
4962.07
4001.57
9197.93
7106.25
6865.97
3785.69
3609.35
3523.3
3529.28
3529.44
3524.48
3730.48
4280.54
2374.96
3624.65
2732.87
3094.72
2326.31
3122.12
4214.18
3997.49
4229.88
3884.49
3683.35
3662.77
3972.37
3814.6
3839.64
4153.51
4134.16
4144.85
3578.05
4033.97
3436.92
3467.77
3812.49
4065.65
4072.51
4320.96
3910.7
4043.29
3532.22
4232.41
3269.01
3431.61
3999.74
3437.54
4357.71
3514.79
4482.15
4505.94
4893.82
4331.11
3832.3
4647.43
3506.47
4487.82
4447.36
3290.69
3718.99
3125.85
3917.22
5070.01
2939.28
3681.15
2935.78
3161.83
3931.45
5725.23
4892.29
5204.86
4342.56
4439.72
4009.83
4246.07
4615.92
4314.52
4003.92
3944.58
4366.3
4645.95
4227.24
4492.32
4031
4000.66
4135.86
5070.03
4991.45
5105.2
2455.35
3028.72
2234
2548.29
3775.69
3936.08
3938.33
3765.88
3767.08
3585.22
4256.58
4016.06
3937.68
3824.82
4060.4
4301.85
4325.14
4357.07
3991.72
4902.88
4473.53
3907.58
4448.09
5040.62
3808.26
4293.6
3002.61
4193.85
3911
3904.95
3397.43
2879.89
3661.59
6310.27
5868.52
6249.81
3910.86
5270.36
5421.26
4907.39
6087.36
3207.04
2997.75
2618.42
3028.1
3822.46
3956.56
5185.42
3920.92
3139.24
3107.47
4227.1
3231.11
4627.28
SCALARS SignedDistance double 1
LOOKUP_TABLE default
181.252
194.444
180.166
183.314
155.71
201.215
273.114
146.911
179.914
199.271
174.903
189.859
207.349
195.57
195.997
199.466
182.878
170.09
164.783
184.58
158.233
195.862
199.981
213.475
181.073
177.832
180.563
177.507
218.368
192.02
169.768
188.924
186.399
187.538
149.902
145.693
236.191
224.221
220.113
192.513
186.442
201.315
195.855
200.604
180.882
190.035
200.082
199.148
197.419
200.32
196.876
186.771
175.419
198.67
198.499
178.335
185.255
188.016
175.854
181.389
189.339
173.662
150.149
160.542
152.798
158.857
182.86
152.087
161.107
160.006
139.834
166.607
199.542
186.709
194.252
207.598
196.637
209.335
211.037
201.665
204.797
206.259
205.315
196.741
183.867
184.863
181.929
184.148
171.713
175.084
164.819
186.88
183.126
177.981
186.486
170.682
175.021
179.083
186.082
180.07
180.162
190.88
228.491
223.444
254.082
167.544
155.348
190.182
159.581
173.366
146.111
164.546
179.257
173.084
173.144
189.108
183.138
192.679
139.265
161.504
169.613
185.059
211.105
134.88
137.195
215.188
190.105
171.431
228.209
197.224
201.554
234.305
228.02
269.672
234.52
185.794
184.071
221.393
198.574
182.776
184.241
184.167
184.064
192.046
192.372
199.609
205.866
178.519
188.694
190.396
164.873
152.884
173.301
205.531
183.495
180.309
189.407
220.016
190.461
216.009
199.551
207.468
187.455
184.321
176.418
208.514
195.961
206.912
188.222
189.94
196.432
189.786
194.364
194.43
196.845
194.935
191.901
203.509
199.166
204.403
203.382
201.893
197.615
196.693
197.063
195.235
197.793
202.714
201.935
204.894
202.881
200.908
173.834
173.925
190.333
180.608
181.415
178.67
183.393
203.567
199.592
199.222
197.464
198.723
197.713
197.85
180.931
178.824
185.305
184.61
177.191
179.987
193.257
183.896
190.532
196.908
199.358
189.451
173.313
186.183
182.194
171.038
172.483
171.574
165.343
196.173
177.659
169.238
175.047
178.921
172.049
179.483
146.815
150.318
147.812
160.865
155.812
155.989
159.751
157.136
163.127
179.868
166.462
166.554
191.847
197.543
180.174
183.306
172.504
174.531
149.475
148.911
147.649
164.941
152.405
161.933
151.62
160.712
164.4
160.013
169.001
134.943
141.485
143.246
171.856
158.518
156.237
168.498
154.476
142.933
204.337
179.407
188.556
210.475
212.054
177.999
175.153
199.734
191.088
191.183
181.144
173.409
197.884
193.429
205.394
202.548
198.724
202.198
205.654
192.265
207.901
211.088
194.609
203.826
202.757
198.26
216.846
206.115
215.487
200.542
204.339
205.547
206.014
202.264
200.929
201.58
202.912
201.054
197.329
210.009
205.051
210.552
197.649
200.881
202.177
206.666
207.634
210.823
189.301
192.439
192.306
189.586
178.959
181.691
176.997
185.817
186.308
182.573
182.896
186.467
186.704
189.774
167.005
168.491
157.439
181.595
172.826
179.314
177.176
179.019
182.549
187.671
185.111
182.41
191.469
187.026
192.571
193.444
181.212
183.297
183.109
173.558
176.434
184.78
180.061
182.055
182.99
190.438
172.91
174.722
179.576
175.87
172.67
173.613
179.106
176.354
178.684
190.742
181.797
178.839
179.024
175.539
190.533
180.016
184.877
180.603
187.097
151.736
160.857
203.518
188.193
195.703
175.328
185.423
238.471
236.984
265.965
208.028
225.152
214.83
235.244
234.925
236.427
197.199
220.617
196.223
151.082
150.772
169.225
156.356
170.644
158.651
173.868
206.158
194.205
158.144
179.313
180.7
180.136
183.141
175.807
166.314
174.03
158.71
159.064
174.375
158.594
150.501
144.57
162.74
146.708
153.224
179.588
175.204
179.322
180.387
175.157
182.047
169.444
171.323
164.253
194.403
191.228
199.638
183.519
191.041
188.638
189.452
189.996
185.743
142.043
146.707
155.958
153.393
147.68
143.066
182.035
161.945
176.746
176.917
175.318
168.385
185.126
190.105
164.449
179.393
221.857
197.923
209.168
138.581
131.832
141.466
131.005
138.589
134.068
144.126
193.644
187.227
176.646
214.132
202.14
227.112
162.465
178.369
162.563
172.245
173.389
195.701
204.382
190.659
233.476
222.989
209.879
220.611
227.443
189.815
212.115
230.676
225.538
216.129
226.105
240.557
242.208
268.885
255.146
229.308
242.761
226.172
229.79
252.063
234.537
268.086
256.763
247.514
187.238
184.299
194.086
189.491
184.988
184.549
183.631
229.086
226.136
193.909
212.271
203.907
220.156
211.28
178.926
182.805
179.279
184.69
184.784
187.13
189.649
185.926
186.369
190.034
187.227
184.537
181.011
187.473
183.231
180.687
184.609
183.133
182.142
193.875
188.788
194.932
185.482
193.678
202.601
203.848
192.082
192.652
208.399
203.684
204.873
194.783
201.603
191.395
172.718
186.175
183.949
174.451
185.338
192.421
194.535
192.648
188.473
186.561
192.747
181.485
185.973
195.312
197.401
186.905
192.135
188.556
171.982
156.68
164.956
170.319
172.671
144.207
169.619
153.429
142.26
146.28
182.415
177.321
182.806
186.789
175.086
158.849
166.936
168.532
232.583
217.572
225.632
221.239
195.67
185.065
179.383
181.296
188.871
196.28
178.172
183.766
181.33
179.962
179.962
189.606
181.372
185.643
182.426
189.651
186.16
182.015
188.53
229.64
237.429
231.252
220.459
200.876
162.785
190.604
178.081
189.463
203.15
192.16
217.147
195.421
207.421
210.999
211.775
212.078
213.894
184.953
185.389
188.178
196.928
207.029
212.719
218.708
216.828
197.1
188.589
212.681
201.635
217.623
