# vtk DataFile Version 4.2
vtk output
ASCII
DATASET POLYDATA
POINTS 642 double
-400.173 614.825 98.2646
400.173 614.825 98.2646
-400.173 -680.163 98.2646
400.173 -680.163 98.2646
0 -432.842 745.758
0 367.504 745.758
0 -432.842 -549.229
0 367.504 -549.229
647.494 -32.6692 -301.909
647.494 -32.6692 498.438
-647.494 -32.6692 -301.909
-647.494 -32.6692 498.438
-615.803 347.918 333.48
-380.587 202.547 714.068
-235.216 583.134 478.852
235.216 583.134 478.852
0 728.505 98.2646
235.216 583.134 -282.323
-235.216 583.134 -282.323
-380.587 202.547 -517.539
-615.803 347.918 -136.951
-761.175 -32.6692 98.2646
380.587 202.547 714.068
615.803 347.918 333.48
-380.587 -267.885 714.068
0 -32.6692 859.439
-615.803 -413.257 -136.951
-615.803 -413.257 333.48
0 -32.6692 -662.91
-380.587 -267.885 -517.539
615.803 347.918 -136.951
380.587 202.547 -517.539
615.803 -413.257 333.48
380.587 -267.885 714.068
235.216 -648.472 478.852
-235.216 -648.472 478.852
0 -793.844 98.2646
-235.216 -648.472 -282.323
235.216 -648.472 -282.323
380.587 -267.885 -517.539
615.803 -413.257 -136.951
761.175 -32.6692 98.2646
-528.088 501.711 220.526
-447.407 491.164 422.011
-330.265 623.972 296.088
-534.38 89.5922 626.353
-523.833 291.078 545.672
-656.641 165.154 428.53
-122.261 495.419 632.644
-323.747 414.738 622.098
-197.823 297.596 754.906
-123.66 691.251 298.351
-208.004 699.534 98.2646
122.261 495.419 632.644
0 614.825 498.438
208.004 699.534 98.2646
123.66 691.251 298.351
330.265 623.972 296.088
-123.66 691.251 -101.822
-330.265 623.972 -99.5585
330.265 623.972 -99.5585
123.66 691.251 -101.822
-122.261 495.419 -436.115
0 614.825 -301.909
122.261 495.419 -436.115
-447.407 491.164 -225.482
-528.088 501.711 -23.9968
-197.823 297.596 -558.377
-323.747 414.738 -425.569
-656.641 165.154 -232
-523.833 291.078 -349.143
-534.38 89.5922 -429.823
-647.494 367.504 98.2646
-732.203 -32.6692 -109.739
-723.92 167.417 -25.3957
-723.92 167.417 221.925
-732.203 -32.6692 306.268
447.407 491.164 422.011
528.088 501.711 220.526
197.823 297.596 754.906
323.747 414.738 622.098
656.641 165.154 428.53
523.833 291.078 545.672
534.38 89.5922 626.353
-200.087 90.9911 822.185
0 175.334 830.468
-534.38 -154.931 626.353
-400.173 -32.6692 745.758
0 -240.673 830.468
-200.087 -156.33 822.185
-197.823 -362.934 754.906
-723.92 -232.756 221.925
-656.641 -230.492 428.53
-656.641 -230.492 -232
-723.92 -232.756 -25.3957
-528.088 -567.049 220.526
-647.494 -432.842 98.2646
-528.088 -567.049 -23.9968
-400.173 -32.6692 -549.229
-534.38 -154.931 -429.823
0 175.334 -633.938
-200.087 90.9911 -625.655
-197.823 -362.934 -558.377
-200.087 -156.33 -625.655
0 -240.673 -633.938
323.747 414.738 -425.569
197.823 297.596 -558.377
528.088 501.711 -23.9968
447.407 491.164 -225.482
534.38 89.5922 -429.823
523.833 291.078 -349.143
656.641 165.154 -232
528.088 -567.049 220.526
447.407 -556.503 422.011
330.265 -689.311 296.088
534.38 -154.931 626.353
523.833 -356.416 545.672
656.641 -230.492 428.53
122.261 -560.757 632.644
323.747 -480.076 622.098
197.823 -362.934 754.906
123.66 -756.589 298.351
208.004 -764.872 98.2646
-122.261 -560.757 632.644
0 -680.163 498.438
-208.004 -764.872 98.2646
-123.66 -756.589 298.351
-330.265 -689.311 296.088
123.66 -756.589 -101.822
330.265 -689.311 -99.5585
-330.265 -689.311 -99.5585
-123.66 -756.589 -101.822
122.261 -560.757 -436.115
0 -680.163 -301.909
-122.261 -560.757 -436.115
447.407 -556.503 -225.482
528.088 -567.049 -23.9968
197.823 -362.934 -558.377
323.747 -480.076 -425.569
656.641 -230.492 -232
523.833 -356.416 -349.143
534.38 -154.931 -429.823
647.494 -432.842 98.2646
732.203 -32.6692 -109.739
723.92 -232.756 -25.3957
723.92 -232.756 221.925
732.203 -32.6692 306.268
200.087 -156.33 822.185
400.173 -32.6692 745.758
200.087 90.9911 822.185
-447.407 -556.503 422.011
-323.747 -480.076 622.098
-523.833 -356.416 545.672
-323.747 -480.076 -425.569
-447.407 -556.503 -225.482
-523.833 -356.416 -349.143
400.173 -32.6692 -549.229
200.087 -156.33 -625.655
200.087 90.9911 -625.655
723.92 167.417 221.925
723.92 167.417 -25.3957
647.494 367.504 98.2646
-468.611 563.972 159.985
-434.822 570.675 260.412
-368.745 625.693 198.131
-538.232 425.178 381.23
-492.793 501.911 323.576
-577.467 429.231 278.729
-285.47 609.695 390.262
-392.859 563.674 361.747
-345.566 544.252 454.821
-596.641 29.0516 566.876
-603.344 129.478 533.087
-658.362 67.1972 467.009
-457.847 250.296 636.496
-534.58 192.642 591.058
-461.9 147.795 675.731
-642.364 259.328 383.734
-596.344 230.814 491.123
-576.921 323.888 443.831
-61.7208 435.942 694.906
-162.148 402.153 701.609
-99.8664 336.075 756.627
-282.965 505.563 556.112
-225.311 460.124 632.845
-180.464 544.798 560.164
-291.997 252.801 740.629
-263.483 360.189 694.608
-356.557 312.897 675.186
-492.159 396.827 489.033
-429.496 358.099 590.423
-390.768 459.489 527.761
-272.675 670.888 198.477
-307.024 663.839 98.2646
-181.675 645.542 392.221
-229.311 664.753 299.278
-105.006 721.228 98.2646
-167.547 702.924 199.343
-62.6009 719.134 199.555
61.7208 435.942 694.906
0 502.366 639.674
119.074 606.853 493.511
61.7631 561.203 570.375
180.464 544.798 560.164
-61.7631 561.203 570.375
-119.074 606.853 493.511
307.024 663.839 98.2646
272.675 670.888 198.477
368.745 625.693 198.131
62.6009 719.134 199.555
167.547 702.924 199.343
105.006 721.228 98.2646
285.47 609.695 390.262
229.311 664.753 299.278
181.675 645.542 392.221
-62.6626 662.27 402.435
62.6626 662.27 402.435
0 700.997 301.045
-272.675 670.888 -1.94815
-368.745 625.693 -1.60182
-62.6009 719.134 -3.02577
-167.547 702.924 -2.81369
-285.47 609.695 -193.732
-229.311 664.753 -102.749
-181.675 645.542 -195.691
368.745 625.693 -1.60182
272.675 670.888 -1.94815
181.675 645.542 -195.691
229.311 664.753 -102.749
285.47 609.695 -193.732
167.547 702.924 -2.81369
62.6009 719.134 -3.02577
-61.7208 435.942 -498.377
0 502.366 -443.145
61.7208 435.942 -498.377
-119.074 606.853 -296.982
-61.7631 561.203 -373.846
-180.464 544.798 -363.635
180.464 544.798 -363.635
61.7631 561.203 -373.846
119.074 606.853 -296.982
0 700.997 -104.516
62.6626 662.27 -205.906
-62.6626 662.27 -205.906
-434.822 570.675 -63.883
-468.611 563.972 36.5437
-345.566 544.252 -258.292
-392.859 563.674 -165.218
-577.467 429.231 -82.1995
-492.793 501.911 -127.047
-538.232 425.178 -184.701
-99.8664 336.075 -560.098
-162.148 402.153 -505.08
-356.557 312.897 -478.657
-263.483 360.189 -498.079
-291.997 252.801 -544.099
-225.311 460.124 -436.316
-282.965 505.563 -359.583
-658.362 67.1972 -270.48
-603.344 129.478 -336.558
-596.641 29.0516 -370.346
-576.921 323.888 -247.301
-596.344 230.814 -294.594
-642.364 259.328 -187.205
-461.9 147.795 -479.202
-534.58 192.642 -394.529
-457.847 250.296 -439.967
-390.768 459.489 -331.231
-429.496 358.099 -393.894
-492.159 396.827 -292.504
-535.035 508.74 98.2646
-639.522 362.577 -20.8094
-593.872 439.441 36.5015
-593.872 439.441 160.028
-639.522 362.577 217.339
-696.508 -32.6692 -208.759
-703.557 67.5435 -174.41
-751.803 68.6211 35.6637
-735.593 68.4091 -69.2829
-753.897 -32.6692 -6.74117
-697.422 168.344 -131.046
-678.212 261.287 -83.4102
-703.557 67.5435 370.939
-696.508 -32.6692 405.288
-678.212 261.287 279.939
-697.422 168.344 327.575
-753.897 -32.6692 203.27
-735.593 68.4091 265.812
-751.803 68.6211 160.865
-694.939 271.502 35.602
-733.667 170.111 98.2646
-694.939 271.502 160.927
434.822 570.675 260.412
468.611 563.972 159.985
345.566 544.252 454.821
392.859 563.674 361.747
577.467 429.231 278.729
492.793 501.911 323.576
538.232 425.178 381.23
99.8664 336.075 756.627
162.148 402.153 701.609
356.557 312.897 675.186
263.483 360.189 694.608
291.997 252.801 740.629
225.311 460.124 632.845
282.965 505.563 556.112
658.362 67.1972 467.009
603.344 129.478 533.087
596.641 29.0516 566.876
576.921 323.888 443.831
596.344 230.814 491.123
642.364 259.328 383.734
461.9 147.795 675.731
534.58 192.642 591.058
457.847 250.296 636.496
390.768 459.489 527.761
429.496 358.099 590.423
492.159 396.827 489.033
-100.213 240.005 801.822
0 274.355 794.772
-293.956 149.006 776.476
-201.013 196.641 795.686
0 72.3365 852.161
-101.078 134.878 833.858
-101.29 29.9317 850.068
-596.641 -94.39 566.876
-541.41 -32.6692 633.3
-395.246 -151.743 737.787
-472.111 -94.4323 692.136
-461.9 -213.133 675.731
-472.111 29.0939 692.136
-395.246 86.4047 737.787
0 -339.693 794.772
-100.213 -305.344 801.822
-99.8664 -401.414 756.627
-101.29 -95.2701 850.068
-101.078 -200.217 833.858
0 -137.675 852.161
-291.997 -318.139 740.629
-201.013 -261.98 795.686
-293.956 -214.344 776.476
-304.171 29.9934 793.204
-304.171 -95.3318 793.204
-202.78 -32.6692 831.931
-703.557 -132.882 370.939
-658.362 -132.536 467.009
-751.803 -133.96 160.865
-735.593 -133.747 265.812
-642.364 -324.666 383.734
-697.422 -233.682 327.575
-678.212 -326.625 279.939
-658.362 -132.536 -270.48
-703.557 -132.882 -174.41
-678.212 -326.625 -83.4102
-697.422 -233.682 -131.046
-642.364 -324.666 -187.205
-735.593 -133.747 -69.2829
-751.803 -133.96 35.6637
-468.611 -629.311 159.985
-535.035 -574.079 98.2646
-468.611 -629.311 36.5437
-639.522 -427.916 217.339
-593.872 -504.78 160.028
-577.467 -494.569 278.729
-577.467 -494.569 -82.1995
-593.872 -504.78 36.5015
-639.522 -427.916 -20.8094
-733.667 -235.45 98.2646
-694.939 -336.84 35.602
-694.939 -336.84 160.927
-541.41 -32.6692 -436.77
-596.641 -94.39 -370.346
-395.246 86.4047 -541.257
-472.111 29.0939 -495.607
-461.9 -213.133 -479.202
-472.111 -94.4323 -495.607
-395.246 -151.743 -541.257
0 274.355 -598.243
-100.213 240.005 -605.293
-101.29 29.9317 -653.539
-101.078 134.878 -637.329
0 72.3365 -655.632
-201.013 196.641 -599.157
-293.956 149.006 -579.947
-99.8664 -401.414 -560.098
-100.213 -305.344 -605.293
0 -339.693 -598.243
-293.956 -214.344 -579.947
-201.013 -261.98 -599.157
-291.997 -318.139 -544.099
0 -137.675 -655.632
-101.078 -200.217 -637.329
-101.29 -95.2701 -653.539
-304.171 29.9934 -596.675
-202.78 -32.6692 -635.402
-304.171 -95.3318 -596.675
162.148 402.153 -505.08
99.8664 336.075 -560.098
282.965 505.563 -359.583
225.311 460.124 -436.316
291.997 252.801 -544.099
[...]
POINT_DATA 642
SCALARS SignedDistance double 1
LOOKUP_TABLE default
488.502
508.886
487.905
501.885
389.157
536.418
612.058
406.078
476.631
542.133
457.769
518.067
558.98
531.996
526.682
536.472
490.575
453.399
442.763
435.899
389.646
518.141
545.88
581.17
460.947
482.135
499.321
485.069
498.711
516.084
416.987
446.084
506.914
478.298
405.529
395.457
528.619
541.805
543.936
524.72
514.581
534.271
515.516
534.148
495.232
522.661
549.824
543.98
544.442
550.946
530.084
498.321
477.637
549.537
541.955
483.723
501.199
511.455
465.533
472.128
479.016
470.259
414.899
434.79
420.262
410.209
442.094
416.319
428.043
391.944
387.106
428.33
475.476
475.015
435.615
542.83
529.836
555.2
541.531
540.983
563.002
564.634
565.895
539.662
498.12
498.984
502.466
505.616
453.299
476.755
412.395
504.073
502.61
490.83
502.265
475.349
483.243
494.093
493.657
492.762
422.6
457.13
550.513
533.976
592.999
438.445
424.125
461.322
425.004
443.952
408.137
421.972
493.442
462.22
458.338
520.428
490.61
526.219
378.997
424.552
421.256
434.368
511.962
371.574
369.8
508.643
431.383
446.242
567.089
527.6
520.515
570.108
574.085
615.635
577.399
517.155
510.556
551.233
530.722
504.855
513.448
504.898
506.633
496.337
518.327
532.45
557.455
483.637
516.894
510.514
443.721
409.842
468.295
525.731
508.128
502.278
503.064
537.402
463.228
567.862
467.396
500.518
498.684
501.862
487.384
546.076
522.392
537.055
509.241
512.544
527.42
520.304
532.713
530.818
541.118
536.013
526.858
556.387
546.377
558.058
546.262
544.256
530.046
542.039
545.904
539.386
533.101
546.859
547.385
556.195
553.956
548.015
481.791
480.75
509.71
492.679
478.316
483.911
496.166
548.68
549.412
536.182
545.59
546.675
544.272
533.027
494.403
494.943
506.16
494.94
490.079
480.067
522.399
502.831
516.51
524.104
522.975
513.151
476.514
486.487
476.42
471.032
460.416
468.763
453.744
497.408
484.439
462.108
476.576
470.092
475.174
475.731
407.896
413.558
410.022
436.946
423.8
426.733
435.226
426.179
442.485
468.906
453.903
450.827
451.71
481.538
439.551
437.953
408.755
415.375
393.331
408.799
410.857
427.567
420.066
429.183
419.405
432.784
423.137
403.205
439.547
380.823
383.172
384.109
425.024
397.427
406.348
416.795
404.816
391.514
491.664
424.847
454.413
508.203
529.592
461.851
429.552
489.342
450.844
501.189
402.256
402.433
538.03
524.079
555.13
551.531
531.219
545.351
536.702
448.971
487.443
505.281
523.849
522.594
543.284
531.747
563.792
546.666
570.589
536.093
551.975
560.209
557.906
546.433
555.238
553.715
553.492
551.994
539.694
575.279
564.282
575.535
542.145
553.09
556.312
563.761
568.094
573.724
510.564
516.591
517.455
512.14
486.255
493.911
483.922
507.979
510.754
497.311
502.838
486.909
513.27
517.286
418.288
426.764
398.473
479.573
462.941
474.892
432.523
442.309
468.63
506.464
495.609
492.519
512.426
509.924
516.969
512.591
493.913
504.454
495.523
481.164
483.939
500.768
493.534
498.614
492.264
506.163
477.886
480.617
490.44
483.482
478.267
478.118
496.831
486.442
493.103
501.525
493.709
489.025
467.238
477.864
463.165
461.099
504.992
492.798
507.038
410.366
416.977
475.769
436.63
455.158
428.263
445.083
584.325
579.897
608.392
525.071
545.753
530.308
546.25
566.472
529.839
487.77
506.515
510.936
417.898
412.628
445.018
429.623
440.585
431.205
437.049
495.968
464.61
415.126
433.214
432.54
448.211
446.442
457.153
426.9
445.375
422.023
418.825
440.052
413.613
409.51
405.895
427.271
410.084
418.436
494.958
479.035
484.755
488.378
481.189
497.8
426.925
455.164
431.647
530.636
524.802
535.174
482.747
507.619
507.797
517.003
511.878
500.173
378.365
396.401
403.8
410.911
399.677
388.989
446.753
418.612
446.345
474.299
458.552
441.099
481.539
505.582
411.051
441.815
519.237
476.752
477.374
374.102
364.922
377.598
364.706
379.715
368.363
383.633
497.808
473.802
475.382
477.804
472.579
518.89
416.652
434.683
404.393
393.142
390.078
427.127
525.282
516.37
563.357
540.187
535.087
542.192
554.336
504.729
518.705
555.182
538.931
531.036
540.734
566.283
593.138
614.99
599.233
574.815
594.308
555.888
557.059
599.225
577.898
605.116
597.49
592.791
516.527
506.838
527.229
521.651
513.071
514.434
513.181
578.989
561.218
526.655
539.652
535.217
546.509
536.47
495.662
502.974
492.509
512.733
510.173
512.649
516.598
511.829
517.39
522.584
519.133
514.784
500.375
514.492
506.626
500.453
507.045
482.486
499.346
522.27
508.289
519.022
508.461
518.07
538.804
551.7
519.801
528.505
554.453
541.495
544.583
519.62
532.128
515.813
430.004
481.796
451.767
467.171
482.545
527.643
530.39
527.571
517.725
509.877
517.116
491.109
500.853
524.031
531.479
505.469
518.925
503.721
465.194
417.631
440.29
463.15
467.472
387.893
429.903
406.57
388.596
398.055
502.884
477.393
488.096
484.378
462.202
423.876
439.17
452.998
563.186
532.822
544.724
536.416
520.302
504.644
501.037
502.72
513.878
521.507
489.961
507.603
499.791
497.249
500.119
515.544
504.621
510.824
481.591
518.682
504.817
472.596
471.109
575.043
532.635
563.781
547.567
532.203
420.658
455.867
435.087
440.092
479.012
520.611
511.882
497.244
563.506
554.591
570.497
574.549
577.755
454.188
433.275
434.444
476.516
514.012
509.775
552.116
529.176
477.214
451.842
516.861
478.141
531.606
SCALARS CoVolArea double 1
LOOKUP_TABLE default
8770.8
8770.8
8770.8
8770.8
8770.8
8770.8
8770.8
8770.8
8770.8
8770.8
8770.8
8770.8
11361.7
11361.7
11361.7
11361.7
11361.7
11361.7
11361.7
11361.7
11361.7
11361.7
11361.7
11361.7
11361.7
11361.7
11361.7
11361.7
11361.7
11361.7
11361.7
11361.7
11361.7
11361.7
11361.7
11361.7
11361.7
11361.7
11361.7
11361.7
11361.7
11361.7
10775.9
11894.1
10775.9
10775.9
11894.1
10775.9
10775.9
11894.1
10775.9
11894.1
10775.9
10775.9
11894.1
10775.9
11894.1
10775.9
11894.1
10775.9
10775.9
11894.1
10775.9
11894.1
10775.9
11894.1
10775.9
10775.9
11894.1
10775.9
11894.1
10775.9
11894.1
10775.9
11894.1
11894.1
10775.9
11894.1
10775.9
10775.9
11894.1
10775.9
11894.1
10775.9
11894.1
10775.9
10775.9
11894.1
10775.9
11894.1
10775.9
11894.1
10775.9
10775.9
11894.1
10775.9
11894.1
10775.9
11894.1
10775.9
10775.9
11894.1
10775.9
11894.1
10775.9
11894.1
10775.9
10775.9
11894.1
10775.9
11894.1
10775.9
10775.9
11894.1
10775.9
10775.9
11894.1
10775.9
10775.9
11894.1
10775.9
11894.1
10775.9
10775.9
11894.1
10775.9
11894.1
10775.9
11894.1
10775.9
10775.9
11894.1
10775.9
11894.1
10775.9
11894.1
10775.9
10775.9
11894.1
10775.9
11894.1
10775.9
11894.1
10775.9
11894.1
11894.1
10775.9
11894.1
11894.1
11894.1
11894.1
11894.1
11894.1
11894.1
11894.1
11894.1
11894.1
11894.1
11894.1
11894.1
11894.1
11894.1
10583.4
10874
10583.4
11755.8
10924.4
10704.2
10704.2
10924.4
11755.8
10583.4
10874
10583.4
11755.8
10924.4
10704.2
10704.2
10924.4
11755.8
10583.4
10874
10583.4
11755.8
10924.4
10704.2
10704.2
10924.4
11755.8
13141.4
13141.4
13141.4
10874
10583.4
11755.8
10924.4
10704.2
10924.4
11755.8
10583.4
10874
11755.8
10924.4
10704.2
10924.4
11755.8
10583.4
10874
10583.4
11755.8
10924.4
10704.2
10704.2
10924.4
11755.8
13141.4
13141.4
13141.4
10874
10583.4
11755.8
10924.4
10704.2
10924.4
11755.8
10583.4
10874
11755.8
10924.4
10704.2
10924.4
11755.8
10583.4
10874
10583.4
11755.8
10924.4
10704.2
10704.2
10924.4
11755.8
13141.4
13141.4
13141.4
10874
10583.4
11755.8
10924.4
10704.2
10924.4
11755.8
10583.4
10874
11755.8
10924.4
10704.2
10924.4
11755.8
10583.4
10874
10583.4
11755.8
10924.4
10704.2
10704.2
10924.4
11755.8
13141.4
13141.4
13141.4
10874
11755.8
10924.4
10924.4
11755.8
10583.4
10874
11755.8
10924.4
10704.2
10924.4
11755.8
10874
10583.4
11755.8
10924.4
10704.2
10924.4
11755.8
13141.4
13141.4
13141.4
10874
10583.4
11755.8
10924.4
10704.2
10924.4
11755.8
10583.4
10874
11755.8
10924.4
10704.2
10924.4
11755.8
10583.4
10874
10583.4
11755.8
10924.4
10704.2
10704.2
10924.4
11755.8
13141.4
13141.4
13141.4
10874
10583.4
11755.8
10924.4
10704.2
10924.4
11755.8
10583.4
10874
11755.8
10924.4
10704.2
10924.4
11755.8
10583.4
10874
10583.4
11755.8
10924.4
10704.2
10704.2
10924.4
11755.8
13141.4
13141.4
13141.4
10874
10583.4
11755.8
10924.4
10704.2
10924.4
11755.8
10583.4
10874
11755.8
10924.4
10704.2
10924.4
11755.8
10583.4
10874
10583.4
11755.8
10924.4
10704.2
10704.2
10924.4
11755.8
13141.4
13141.4
13141.4
10874
10583.4
11755.8
10924.4
10704.2
10924.4
11755.8
10583.4
10874
11755.8
10924.4
10704.2
10924.4
11755.8
10583.4
10874
10583.4
11755.8
10924.4
10704.2
10704.2
10924.4
11755.8
13141.4
13141.4
13141.4
10874
10583.4
11755.8
10924.4
10704.2
10924.4
11755.8
10583.4
10874
11755.8
10924.4
10704.2
10924.4
11755.8
10583.4
10874
10583.4
11755.8
10924.4
10704.2
10704.2
10924.4
11755.8
13141.4
13141.4
13141.4
10583.4
10874
10583.4
11755.8
10924.4
10704.2
10704.2
10924.4
11755.8
10583.4
10874
10583.4
11755.8
10924.4
10704.2
10704.2
10924.4
11755.8
10583.4
10874
10583.4
11755.8
10924.4
10704.2
10704.2
10924.4
11755.8
13141.4
13141.4
13141.4
10874
10583.4
11755.8
10924.4
10704.2
10924.4
11755.8
10583.4
10874
11755.8
10924.4
10704.2
10924.4
11755.8
10583.4
10874
10583.4
11755.8
10924.4
10704.2
10704.2
10924.4
11755.8
13141.4
13141.4
13141.4
10874
10583.4
11755.8
10924.4
10704.2
10924.4
11755.8
10583.4
10874
11755.8
10924.4
10704.2
10924.4
11755.8
10583.4
10874
10583.4
11755.8
10924.4
10704.2
10704.2
10924.4
11755.8
13141.4
13141.4
13141.4
10874
10583.4
11755.8
10924.4
10704.2
10924.4
11755.8
10583.4
10874
11755.8
10924.4
10704.2
10924.4
11755.8
10583.4
10874
10583.4
11755.8
10924.4
10704.2
10704.2
10924.4
11755.8
13141.4
13141.4
13141.4
10874
11755.8
10924.4
10924.4
11755.8
10583.4
10874
11755.8
10924.4
10704.2
10924.4
11755.8
10874
10583.4
11755.8
10924.4
10704.2
10924.4
11755.8
13141.4
13141.4
13141.4
10874
11755.8
10924.4
10924.4
11755.8
10874
11755.8
10924.4
10924.4
11755.8
10874
11755.8
10924.4
10924.4
11755.8
13141.4
13141.4
13141.4
10874
11755.8
10924.4
10924.4
11755.8
10874
11755.8
10924.4
10924.4
11755.8
10874
11755.8
10924.4
10924.4
11755.8
13141.4
13141.4
13141.4
10874
11755.8
10924.4
10924.4
11755.8
10874
11755.8
10924.4
10924.4
11755.8
10874
11755.8
10924.4
10924.4
11755.8
13141.4
13141.4
13141.4
10874
11755.8
10924.4
10924.4
11755.8
10874
11755.8
10924.4
10924.4
11755.8
10874
11755.8
10924.4
10924.4
11755.8
13141.4
13141.4
13141.4
10874
11755.8
10924.4
10924.4
11755.8
10874
11755.8
10924.4
10924.4
11755.8
10874
11755.8
10924.4
10924.4
11755.8
13141.4
13141.4
13141.4
SCALARS Mean_Curvature double 1
LOOKUP_TABLE default
0.00300329
0.00300329
0.00300329
0.00300329
0.00300329
0.00300329
0.00300329
0.00300329
0.00300329
0.00300329
0.00300329
0.00300329
0.00261601
0.00261601
0.00261601
0.00261601
0.00261601
0.00261601
0.00261601
0.00261601
0.00261601
0.00261601
0.00261601
0.00261601
0.00261601
0.00261601
0.00261601
0.00261601
0.00261601
0.00261601
0.00261601
0.00261601
0.00261601
0.00261601
0.00261601
0.00261601
0.00261601
0.00261601
0.00261601
0.00261601
0.00261601
0.00261601
0.00261586
0.00262738
0.00261586
0.00261586
0.00262738
0.00261586
0.00261586
0.00262738
0.00261586
0.00262738
0.00261586
0.00261586
0.00262738
0.00261586
0.00262738
0.00261586
0.00262738
0.00261586
0.00261586
0.00262738
0.00261586
0.00262738
0.00261586
0.00262738
0.00261586
0.00261586
0.00262738
0.00261586
0.00262738
0.00261586
0.00262738
0.00261586
0.00262738
0.00262738
0.00261586
0.00262738
0.00261586
0.00261586
0.00262738
0.00261586
0.00262738
0.00261586
0.00262738
0.00261586
0.00261586
0.00262738
0.00261586
0.00262738
0.00261586
0.00262738
0.00261586
0.00261586
0.00262738
0.00261586
0.00262738
0.00261586
0.00262738
0.00261586
0.00261586
0.00262738
0.00261586
0.00262738
0.00261586
0.00262738
0.00261586
0.00261586
0.00262738
0.00261586
0.00262738
0.00261586
0.00261586
0.00262738
0.00261586
0.00261586
0.00262738
0.00261586
0.00261586
0.00262738
0.00261586
0.00262738
0.00261586
0.00261586
0.00262738
0.00261586
0.00262738
0.00261586
0.00262738
0.00261586
0.00261586
0.00262738
0.00261586
0.00262738
0.00261586
0.00262738
0.00261586
0.00261586
0.00262738
0.00261586
0.00262738
0.00261586
0.00262738
0.00261586
0.00262738
0.00262738
0.00261586
0.00262738
0.00262738
0.00262738
0.00262738
0.00262738
0.00262738
0.00262738
0.00262738
0.00262738
0.00262738
0.00262738
0.00262738
0.00262738
0.00262738
0.00262738
0.00262064
0.00262612
0.00262064
0.00262329
0.00262138
0.0026207
0.0026207
0.00262138
0.00262329
0.00262064
0.00262612
0.00262064
0.00262329
0.00262138
0.0026207
0.0026207
0.00262138
0.00262329
0.00262064
0.00262612
0.00262064
0.00262329
0.00262138
0.0026207
0.0026207
0.00262138
0.00262329
0.00262228
0.00262228
0.00262228
0.00262612
0.00262064
0.00262329
0.00262138
0.0026207
0.00262138
0.00262329
0.00262064
0.00262612
0.00262329
0.00262138
0.0026207
0.00262138
0.00262329
0.00262064
0.00262612
0.00262064
0.00262329
0.00262138
0.0026207
0.0026207
0.00262138
0.00262329
0.00262228
0.00262228
0.00262228
0.00262612
0.00262064
0.00262329
0.00262138
0.0026207
0.00262138
0.00262329
0.00262064
0.00262612
0.00262329
0.00262138
0.0026207
0.00262138
0.00262329
0.00262064
0.00262612
0.00262064
0.00262329
0.00262138
0.0026207
0.0026207
0.00262138
0.00262329
0.00262228
0.00262228
0.00262228
0.00262612
0.00262064
0.00262329
0.00262138
0.0026207
0.00262138
0.00262329
0.00262064
0.00262612
0.00262329
0.00262138
0.0026207
0.00262138
0.00262329
0.00262064
0.00262612
0.00262064
0.00262329
0.00262138
0.0026207
0.0026207
0.00262138
0.00262329
0.00262228
0.00262228
0.00262228
0.00262612
0.00262329
0.00262138
0.00262138
0.00262329
0.00262064
0.00262612
0.00262329
0.00262138
0.0026207
0.00262138
0.00262329
0.00262612
0.00262064
0.00262329
0.00262138
0.0026207
0.00262138
0.00262329
0.00262228
0.00262228
0.00262228
0.00262612
0.00262064
0.00262329
0.00262138
0.0026207
0.00262138
0.00262329
0.00262064
0.00262612
0.00262329
0.00262138
0.0026207
0.00262138
0.00262329
0.00262064
0.00262612
0.00262064
0.00262329
0.00262138
0.0026207
0.0026207
0.00262138
0.00262329
0.00262228
0.00262228
0.00262228
0.00262612
0.00262064
0.00262329
0.00262138
0.0026207
0.00262138
0.00262329
0.00262064
0.00262612
0.00262329
0.00262138
0.0026207
0.00262138
0.00262329
0.00262064
0.00262612
0.00262064
0.00262329
0.00262138
0.0026207
0.0026207
0.00262138
0.00262329
0.00262228
0.00262228
0.00262228
0.00262612
0.00262064
0.00262329
0.00262138
0.0026207
0.00262138
0.00262329
0.00262064
0.00262612
0.00262329
0.00262138
0.0026207
0.00262138
0.00262329
0.00262064
0.00262612
0.00262064
0.00262329
0.00262138
0.0026207
0.0026207
0.00262138
0.00262329
0.00262228
0.00262228
0.00262228
0.00262612
0.00262064
0.00262329
0.00262138
0.0026207
0.00262138
0.00262329
0.00262064
0.00262612
0.00262329
0.00262138
0.0026207
0.00262138
0.00262329
0.00262064
0.00262612
0.00262064
0.00262329
0.00262138
0.0026207
0.0026207
0.00262138
0.00262329
0.00262228
0.00262228
0.00262228
0.00262612
0.00262064
0.00262329
0.00262138
0.0026207
0.00262138
0.00262329
0.00262064
0.00262612
0.00262329
0.00262138
0.0026207
0.00262138
0.00262329
0.00262064
0.00262612
0.00262064
0.00262329
0.00262138
0.0026207
0.0026207
0.00262138
0.00262329
0.00262228
0.00262228
0.00262228
0.00262064
0.00262612
0.00262064
0.00262329
0.00262138
0.0026207
0.0026207
0.00262138
0.00262329
0.00262064
0.00262612
0.00262064
0.00262329
0.00262138
0.0026207
0.0026207
0.00262138
0.00262329
0.00262064
0.00262612
0.00262064
0.00262329
0.00262138
0.0026207
0.0026207
0.00262138
0.00262329
0.00262228
0.00262228
0.00262228
0.00262612
0.00262064
0.00262329
0.00262138
0.0026207
0.00262138
0.00262329
0.00262064
0.00262612
0.00262329
0.00262138
0.0026207
0.00262138
0.00262329
0.00262064
0.00262612
0.00262064
0.00262329
0.00262138
0.0026207
0.0026207
0.00262138
0.00262329
0.00262228
0.00262228
0.00262228
0.00262612
0.00262064
0.00262329
0.00262138
0.0026207
0.00262138
0.00262329
0.00262064
0.00262612
0.00262329
0.00262138
0.0026207
0.00262138
0.00262329
0.00262064
0.00262612
0.00262064
0.00262329
0.00262138
0.0026207
0.0026207
0.00262138
0.00262329
0.00262228
0.00262228
0.00262228
0.00262612
0.00262064
0.00262329
0.00262138
0.0026207
0.00262138
0.00262329
0.00262064
0.00262612
0.00262329
0.00262138
0.0026207
0.00262138
0.00262329
0.00262064
0.00262612
0.00262064
0.00262329
0.00262138
0.0026207
0.0026207
0.00262138
0.00262329
0.00262228
0.00262228
0.00262228
0.00262612
0.00262329
0.00262138
0.00262138
0.00262329
0.00262064
0.00262612
0.00262329
0.00262138
0.0026207
0.00262138
0.00262329
0.00262612
0.00262064
0.00262329
0.00262138
0.0026207
0.00262138
0.00262329
0.00262228
0.00262228
0.00262228
0.00262612
0.00262329
0.00262138
0.00262138
0.00262329
0.00262612
0.00262329
0.00262138
0.00262138
0.00262329
0.00262612
0.00262329
0.00262138
0.00262138
0.00262329
0.00262228
0.00262228
0.00262228
0.00262612
0.00262329
0.00262138
0.00262138
0.00262329
0.00262612
0.00262329
0.00262138
0.00262138
0.00262329
0.00262612
0.00262329
0.00262138
0.00262138
0.00262329
0.00262228
0.00262228
0.00262228
0.00262612
0.00262329
0.00262138
0.00262138
0.00262329
0.00262612
0.00262329
0.00262138
0.00262138
0.00262329
0.00262612
0.00262329
0.00262138
0.00262138
0.00262329
0.00262228
0.00262228
0.00262228
0.00262612
0.00262329
0.00262138
0.00262138
0.00262329
0.00262612
0.00262329
0.00262138
0.00262138
0.00262329
0.00262612
0.00262329
0.00262138
0.00262138
0.00262329
0.00262228
0.00262228
0.00262228
0.00262612
0.00262329
0.00262138
0.00262138
0.00262329
0.00262612
0.00262329
0.00262138
0.00262138
0.00262329
0.00262612
0.00262329
0.00262138
0.00262138
0.00262329
0.00262228
0.00262228
0.00262228
