# vtk DataFile Version 4.2
vtk output
ASCII
DATASET POLYDATA
POINTS 642 double
-277.291 413.302 93.6615
271.65 406.505 90.5369
-278.365 -478.06 105.83
272.162 -473.244 107.526
-1.57641 -341.628 583.441
-1.80388 219.627 531.786
-0.197146 -286.429 -293.935
-0.738065 263.949 -380.701
451.953 -11.7786 -182.428
420.458 -38.8052 365.051
-461.923 -11.0151 -186.16
-431.819 -39.1291 368.905
-393.154 220.362 238.944
-249.919 114.301 509.427
-158.705 382.939 340.118
153.977 380.136 338.45
-0.487944 489.162 92.0798
166.369 402.342 -180.276
-168.992 405.912 -182.3
-280.755 140.663 -343.375
-466.642 254.251 -82.128
-511.201 -29.2372 84.8061
246.301 111.846 504.3
385.723 212.565 237.081
-260.21 -218.057 536.502
-0.883723 -36.7691 623.964
-419.285 -292.502 -60.399
-420.622 -301.006 263.083
-1.73378 -8.98769 -434.007
-260.53 -187.547 -312.925
455.448 248.845 -78.876
276.589 140.712 -342.515
411.372 -297.201 259.963
252.936 -217.242 531.487
166.444 -491.042 386.023
-169.191 -494.12 388.332
-1.87438 -551.982 130.112
-164.567 -440.21 -153.437
161.637 -438.003 -152.123
257.462 -187.519 -309.031
412.665 -288.68 -60.2973
503.401 -28.9866 83.4101
-355.373 332.277 168.104
-292.628 325.279 300.877
-224.454 420.704 227.493
-355.207 42.1961 453.075
-341.819 169.634 392.966
-428.569 89.2648 319.127
-81.4595 312.766 445.012
-206.695 258.736 438.096
-125.941 176.025 541.181
-91.6148 463.615 227.483
-142.703 476.304 95.6595
78.2843 311.655 443.341
-0.460438 394.59 352.259
139.938 475.035 94.2016
87.7558 462.094 227.255
218.517 415.551 225.806
-86.627 475.341 -47.8307
-239.915 418.71 -50.1709
236.798 416.591 -48.0714
84.4516 472.939 -46.3363
-88.4288 353.223 -297.592
-1.11126 430.985 -198.444
85.8245 351.801 -296.394
-339.064 350.979 -142.275
-391.21 349.111 -9.56229
-142.082 212.244 -383.915
-237.771 292.413 -281.45
-495.62 123.282 -151.64
-398.274 210.565 -236.287
-394.184 72.7698 -282.662
-463.031 250.486 70.4451
-510.048 -10.6712 -58.8335
-531.206 124.25 -9.57951
-475.302 106.67 151.295
-484.302 -43.6646 237.701
283.761 319.517 298.012
347.131 325.177 162.081
121.689 174.321 537.114
202.534 255.696 434.855
418.723 88.2968 316.008
335.685 166.569 388.962
348.275 40.3679 448.818
-129.827 48.52 595.302
-1.64491 101.547 599.91
-358.096 -125.886 459.19
-269.741 -37.6098 537.099
-1.01042 -200.864 614.041
-135.965 -137.212 600.328
-143.428 -284.887 582.438
-489.015 -173.779 181.37
-442.913 -173.502 323.823
-452.144 -163.552 -129.325
-491.015 -167.418 12.2224
-365.109 -406.404 187.732
-445.639 -312.301 100.793
-363.667 -398.229 20.832
-281.024 -15.4461 -341.364
-371.044 -106.526 -261.631
-0.849462 124.074 -441.612
-137.898 73.1878 -421.795
-142.813 -248.678 -332.403
-137.163 -101.925 -387.904
0.769393 -135.284 -366.07
233.34 287.035 -277.845
139.45 210.726 -381.484
382.457 344.281 -6.89829
332.003 346.429 -139.389
388.189 69.0539 -278.794
389.581 206.915 -230.894
480.05 118.73 -145.226
357.967 -401.17 187.059
303.918 -409.86 334.683
223.209 -500.295 255.119
352.158 -121.827 453.64
350.831 -265.514 411.593
432.876 -170.901 319.258
86.4777 -436.182 503.465
226.224 -366.045 485.08
140.937 -283.847 580.489
84.029 -561.888 260.495
137.964 -532.503 116.608
-89.1364 -437.968 505.603
-0.895892 -526.144 407.228
-140.587 -535.405 117.045
-85.9438 -564.464 260.513
-228.335 -505.403 255.889
99.6482 -500.543 -22.566
223.726 -467.69 -29.4834
-226.162 -471.745 -28.8168
-103.03 -500.398 -21.9671
100.917 -370.6 -242.288
-0.122513 -421.896 -147.129
-103.936 -370.226 -242.611
302.49 -382.755 -116.621
356.854 -392.87 20.0597
139.105 -248.045 -329.867
218.479 -327.967 -247.643
445.92 -161.907 -126.857
354.138 -248.196 -201.422
366.539 -106.179 -258.025
435.33 -307.635 100.415
498.824 -13.4097 -54.9429
484.545 -164.245 8.82587
475.89 -171.654 181.643
471.367 -44.2517 233.487
132.365 -136.817 598.395
266.249 -37.6723 533.188
125.605 47.4957 590.816
-311.486 -414.009 337.662
-230.701 -369.017 488.44
-359.596 -268.288 416.883
-219.783 -329.889 -250.142
-306.316 -385.458 -117.868
-358.704 -249.963 -204.209
279.313 -14.1716 -337.254
132.691 -102.995 -384.627
134.539 74.6697 -419.264
464.028 101.776 149.995
513.37 119.94 -8.5874
450.443 246.231 70.4795
-320.546 377.142 130.374
-291.884 383.792 203.29
-251.087 423.761 164.344
-346.82 279.784 274.406
-325.118 334.144 241.644
-379.859 282.911 201.448
-193.429 407.402 285.926
-262.336 376.708 267.602
-228.866 359.985 323.387
-397.083 2.12409 414.037
-397.765 67.0137 389.338
-434.416 26.1651 346.223
-301.77 143.297 454.601
-351.857 107.999 426.705
-306.671 79.5985 484.438
-415.07 150.418 285.758
-388.947 131.711 359.086
-371.228 194.882 322.569
-41.3161 266.779 489.268
-103.16 244.885 495.371
-64.5479 200.588 541.828
-183.079 324.961 391.746
-145.519 290.381 444.837
-120.173 349.551 394.964
-187.733 146.761 529.345
-168.209 216.914 490.453
-229.821 185.296 478.553
-315.543 248.912 345.24
-276.845 216.656 418.279
-251.081 295.187 370.956
-188.204 455.381 164.466
-210.121 451.091 97.2109
-128.019 430.398 285.904
-158.558 448.155 229.852
-76.8901 491.928 93.1789
-118.313 476.282 163.265
-49.0772 481.621 160.25
38.066 266.455 488.439
-1.40299 314.975 448.39
80.5282 392.93 349.218
41.0964 356.735 401.88
116.434 347.791 392.948
-43.5922 356.89 402.573
-83.9069 393.209 350.388
203.938 447.106 95.212
183.081 451.058 162.575
244.442 417.888 162.888
47.0146 483.082 160.336
114.215 473.701 161.648
75.0425 490.787 93.2923
188.128 403.278 283.948
154.241 444.518 228.837
123.319 427.921 285.133
-46.8196 435.127 291.095
45.174 436.561 292.177
-0.440024 463.379 227.46
-186.974 457.828 25.1776
-262.143 417.514 19.0158
-46.4841 491.383 22.5138
-115.35 481.458 24.2567
-206.443 415.855 -117.632
-157.786 455.504 -48.653
-127.441 447.106 -117.362
257.773 413.921 16.7876
184.096 455.368 24.6176
124.701 443.916 -116.133
156.969 452.665 -46.4892
204.008 411.099 -114.951
113.972 479.944 25.6426
44.6609 491.02 23.1578
-45.023 312.614 -343.947
-0.828294 358.031 -303.292
43.1688 312.129 -343.471
-84.5217 424.436 -194.373
-44.8744 397.178 -251.002
-129.252 384.819 -243.385
125.865 382.251 -241.585
42.7671 396.56 -250.68
81.855 422.499 -193.649
-1.55975 481.54 -49.9248
42.0291 458.07 -125.113
-44.8612 459.538 -125.367
-327.415 392.739 -34.0137
-336.254 375.179 33.5341
-259.643 377.534 -162
-299.286 392.351 -99.1272
-434.711 309.678 -44.8813
-372.627 359.11 -73.8466
-407.529 308.54 -114.195
-72.144 241.141 -387.522
-116.758 287.95 -347.77
-261.869 218.499 -316.88
-188.65 256.032 -339.999
-209.404 176.598 -370.126
-161.386 327.495 -296.221
-206.605 355.393 -236.43
-482.582 59.6439 -172.758
-452.493 99.1994 -223.987
-434.062 32.794 -238.092
-438.208 235.62 -163.339
-451.902 167.383 -197.401
-485.74 187.926 -117.851
-347.331 109.345 -318.692
-404.408 140.795 -268.094
-349.027 177.478 -295.764
-297.603 327.68 -217.907
-328.069 257.081 -263.098
-374.055 287.246 -194.446
-376.123 337.351 74.2798
-473.121 258.845 -4.41344
-433.476 302.592 29.9946
-410.486 287.871 113.025
-430.706 237.184 144.054
-492.497 -11.1793 -123.305
-513.321 60.5898 -104.405
-521.693 62.1742 27.8105
-528.687 64.2976 -35.8582
-512.06 -15.0783 12.1201
-525.253 126.77 -78.0258
-510.249 188.118 -46.4354
-461.38 25.0019 282.347
-462.452 -40.7298 305.488
-440.985 160.075 195.079
-453.208 92.4099 247.063
-499.348 -41.1399 163.612
-480.603 28.0193 204.978
-497.266 42.805 115.012
-504.625 189.375 31.5332
-515.798 124.654 65.7079
-483.499 183.837 105.058
283.869 377.52 201.103
314.546 369.742 125.948
222.483 355.41 320.692
255.067 371.366 264.769
370.025 274.343 194.914
315.016 328.806 238.03
335.8 271.12 271.519
60.663 199.6 539.765
99.671 243.782 492.681
226.003 183.117 473.944
164.683 215.293 486.334
183.962 144.718 523.747
141.934 288.24 442.073
178.366 321.728 389.377
423.373 26.142 343.009
389.165 65.3914 385.332
388.244 2.03322 410.444
364.9 189.439 321.082
381.224 129.662 355.197
406.472 147.106 284.327
301.106 77.0849 479.927
345.02 105.661 422.162
296.268 140.752 449.947
245.288 290.271 368.441
271.908 213.25 414.926
309.026 242.876 344.011
-65.5531 142.395 577.78
-1.77554 162.978 571.081
-190.447 83.5645 557.542
-129.981 114.026 573.56
-1.59463 35.8165 618.065
-67.0973 75.6805 604.158
-67.119 8.25263 617.794
-401.587 -78.8316 416.051
-363.542 -37.5804 459.975
-265.575 -130.168 534.174
-318.386 -81.8917 501.826
-312.597 -174.773 498.582
-316.29 3.36104 499.126
-264.06 40.6494 528.297
-1.14189 -273.424 606.431
-73.5631 -248.352 607.589
-71.9355 -316.827 587.653
-67.7822 -83.5998 619.859
-71.7194 -168.449 612.637
-0.683742 -114.788 622.485
-206.907 -253.17 568.048
-144.013 -217.584 599.376
-199.02 -184.854 574.957
-200.965 5.24402 570.383
-202.91 -86.7035 574.518
-132.899 -37.313 603.056
-472.661 -106.582 282.242
-442.449 -105.31 347.849
-502.751 -107.206 138.497
-494.849 -108.351 211.91
-435.336 -239.539 296.198
-470.973 -173.698 253.187
-461.402 -238.868 221.876
-457.654 -89.5224 -158.084
-486.207 -91.0069 -93.9419
-460.56 -231.681 -25.3908
-477.963 -166.369 -62.3192
-438.169 -228.724 -97.1818
-503.755 -96.2628 -24.1772
-509.225 -102.624 49.514
-325.145 -446.97 147.205
-371.204 -408.156 102.434
-324.868 -442.138 62.7343
-439.546 -310.268 179.755
-411.142 -361.712 142.69
-397.266 -357.001 226.679
-395.286 -348.172 -20.8244
-409.689 -358.965 60.5921
-437.312 -306.454 21.5673
-498.621 -176.213 97.3258
-475.067 -244.259 58.8684
-476.085 -246.408 140.562
-387.076 -12.3743 -275.378
-417.448 -58.4896 -226.902
-286.848 69.1747 -350.051
-344.216 32.1148 -316.689
-317.328 -150.328 -290.82
-331.297 -61.6536 -304.161
-273.215 -107.327 -332.109
-0.824772 195.226 -414.924
-71.2417 169.317 -418.32
-66.5745 33.2953 -435.225
-70.8873 97.7918 -439.322
-1.02322 58.5365 -444.546
-144.4 138.379 -412.272
-209.414 109.097 -393.143
-91.4782 -267.081 -319.086
-88.3128 -201.467 -351.594
0.0584112 -214.881 -331.916
-199.889 -149.911 -354.157
-143.785 -179.56 -361.111
-198.908 -221.226 -328.091
-1.19781 -67.7767 -412.457
-77.988 -117.224 -383.943
-65.5357 -49.6996 -415.938
-208.034 33.29 -384.209
[...]
POINT_DATA 642
SCALARS Mean_Curvature double 1
LOOKUP_TABLE default
0.00377882
0.00251471
0.00480873
0.00423585
0.0064493
0.00439343
-0.00437704
0.00512865
0.00323809
0.00449986
0.00420325
0.00474849
-0.000668305
0.00337668
0.00387375
0.0039657
0.000592765
0.00328951
0.00348668
0.00243207
0.00567045
0.00356545
0.003518
-1.08826e-05
0.00448318
0.00319521
0.00353414
0.00306823
0.0059809
0.00333144
0.00594302
0.00375495
0.0033047
0.00459871
0.00378325
0.0039028
0.00252954
0.00706318
0.00622908
0.003634
0.00367332
0.00474988
0.00299203
0.00438268
0.00488274
0.00420465
0.00368886
0.00391763
0.00424577
0.00309223
0.00437952
0.00533898
0.00350944
0.00415968
0.00126691
0.00458727
0.00518332
0.00487865
0.0036888
-6.60466e-05
0.00103575
0.00309306
0.00431243
0.00445988
0.00436447
0.00454019
0.00609509
0.00393846
0.00137839
0.00754418
0.0045558
0.00432827
0.00612799
0.0026361
0.00899266
-0.000738714
0.00286096
0.00405634
0.00222173
0.00392723
0.0031488
0.00412353
0.00382171
0.00424277
0.00499996
0.0047877
0.00176002
0.00375535
0.00177353
0.00185516
0.00455566
0.00317135
0.00314387
0.00412627
0.00209095
0.00325319
0.00466778
0.00363455
0.000618518
0.00325514
0.00696205
0.00569253
0.00746937
0.00505927
-0.00462646
0.000368214
0.00379693
0.00553153
0.00425843
0.0058064
0.00468976
0.00507762
0.00355382
0.00366958
0.00271664
0.00299939
0.0037731
0.0032792
0.00449096
0.00450175
0.00556968
0.00512025
0.00295459
0.00475676
0.00416928
0.00300688
0.00532525
0.00392796
0.00294516
0.00296186
0.00240028
0.0019677
0.00337639
-0.00755243
0.00264936
0.00434361
0.00355425
0.0065875
0.0037791
0.0041825
0.00406445
0.00370313
0.00468694
0.00189807
0.00401276
0.00339478
0.00251819
0.00245425
0.00441821
0.0046223
0.00385751
0.00432996
0.00341229
0.00329777
0.00422625
0.00402319
0.0012623
0.00446562
0.00608453
-0.00102145
0.00719146
0.0057673
0.00306861
0.00459337
0.00473176
0.00390146
0.00495154
0.00332254
0.00500945
0.00498325
0.00418528
0.00395949
0.00412026
0.00401535
0.00395853
0.00422763
0.00417927
0.00300309
0.00403945
0.00244338
0.00230643
0.00240773
0.00458906
0.00324381
0.00392274
0.00345228
0.00342091
0.00197066
0.00261148
0.00127749
0.00242508
0.00275146
0.00492273
0.00365785
0.00513005
0.0050236
0.00619745
0.00499594
0.00245136
0.00247627
0.00306668
0.00336152
0.00360256
0.00333065
0.00338462
0.00314527
0.00314518
0.00466569
0.00448237
0.00403434
0.00414406
0.00592977
0.00495834
0.0050195
0.00487596
0.00309316
0.00466934
0.00192652
0.00367341
0.00031471
0.00392892
0.00403959
0.00142703
0.00290629
0.00388894
0.000306241
0.00410954
0.0036533
0.00305096
2.836e-05
0.00424949
0.0041846
0.00436418
0.00432377
0.00456836
0.00362941
0.00404483
0.00431534
0.00414172
0.00429849
0.00362924
0.00354055
0.003613
0.00380234
0.00755466
0.000386677
0.00210668
0.00612821
0.00758525
0.00697649
0.00392502
0.0042201
0.00438075
0.000415893
0.00418837
0.00321979
0.00422059
0.00258279
0.00413448
0.00705243
0.00416999
0.0044262
0.00423886
0.00308962
0.00722382
0.00657926
0.00487616
0.00521664
0.00502017
0.00462779
0.00135098
0.00573262
0.00537906
0.00182486
0.00112565
0.0030283
0.00477704
0.00313579
0.00673729
-0.000556043
0.00926679
0.00673085
0.00369088
0.00378206
-0.000414074
0.00272791
0.00229459
0.00168991
-0.000775569
0.00511291
0.00731153
0.00573787
0.00443404
0.00237045
0.00402132
0.00499784
0.00137161
0.00500249
0.00207741
0.00437125
0.00235567
0.0027429
0.0020138
0.00298464
0.00389058
0.00324764
0.00405458
0.00410355
0.00439234
0.00314607
0.00421555
0.00353428
0.00409126
0.00413557
0.00388921
0.00266027
0.00268803
0.00175808
0.00509225
0.00479028
0.00373368
0.0048134
0.00498139
0.00509746
0.00496251
0.00448218
0.00404727
0.000329753
0.00369193
0.00337578
0.00426192
0.00374184
0.00490676
0.00493922
0.00471019
0.00386109
0.00169399
0.00284788
0.00783417
0.00678048
0.00260014
0.003006
0.00265525
0.00321927
0.00448803
0.00390015
0.00211698
0.00584607
0.00294742
0.0031392
0.00341108
0.00258528
0.00279167
0.00224404
0.00454393
0.00316439
0.00400938
0.00375636
0.00352385
0.00481129
0.00438323
0.00406855
0.00443083
0.00306422
0.00352489
0.00433527
0.00384127
0.00481878
0.00425138
0.00485771
0.00394486
0.00161254
0.00301299
0.00429288
0.00322579
0.00190979
0.00355081
0.00400373
0.00309652
0.00434832
0.00714119
0.00595205
0.00514567
0.00707276
0.00232787
0.00286319
-0.00228771
0.00317751
0.00556781
0.00362768
0.0051397
0.00082031
0.00472857
0.0011417
0.0014805
0.00244371
0.00425665
0.00434105
0.00204282
0.00422676
0.00262651
0.00398368
0.00216047
0.00250247
0.0073532
0.00386299
0.00698469
0.00742071
0.00529994
0.00505693
0.0049077
0.00612683
0.00581077
0.00470628
0.00523336
0.00580324
0.00359872
0.0046086
0.00437086
0.00478969
0.00464616
0.00498034
0.00324931
0.00356115
0.00356645
0.00331254
0.00320403
0.00362985
0.00608763
0.00411556
0.00475215
0.00382356
0.00262918
0.00394469
0.00389833
0.00365732
0.00101051
0.0029908
0.00355232
0.00357861
0.00496089
0.00383744
0.00364197
0.00429962
0.00420697
0.00413891
0.00682873
0.00455672
0.00520063
0.0034042
0.00406623
0.00440379
0.0021004
0.00291842
0.00374063
0.00664351
0.00434169
0.00345672
0.00399
0.00488688
0.00488689
0.00420175
0.00497925
0.0043767
0.00521334
0.00407983
0.00250912
0.00242403
0.00213023
0.00398882
0.00392697
0.00473909
0.00525537
0.00610102
0.00366494
0.00660458
0.00687022
0.0072857
0.00275972
0.00349248
0.000678911
0.00559853
0.00339654
0.00499827
0.00675784
0.00374847
0.00402038
0.00600133
0.00625702
0.00394244
0.00455868
0.000587992
0.00633798
-0.00745351
0.00613611
0.0038883
0.00649376
0.00745837
0.00677085
0.00631236
0.00317807
-0.00486324
0.00407581
0.0041803
0.00338337
0.00402664
0.00383777
0.00411698
0.00356662
0.00401054
0.00426051
0.00334738
0.00648403
0.0042517
0.00425787
0.00348311
0.00663962
0.00361033
0.00319365
0.00407857
0.00178709
0.00390461
0.00343359
0.00336086
0.00294826
0.00327627
0.00412069
0.00416187
0.00426752
0.00422989
0.00438642
0.00332517
0.00438292
0.00421304
0.00387197
0.00211338
0.00341019
0.00469902
0.00439801
0.000374236
0.0045786
0.00252619
0.00502254
0.00282839
0.00342418
0.00372621
0.00215685
0.00518793
0.00144939
0.00396571
0.00180898
0.00503298
0.00587535
0.00162259
0.00680475
0.00126054
0.00513954
0.00444671
0.00406142
0.00451012
0.00395114
0.00136347
0.00511849
0.00486703
0.00516969
0.00457963
0.00310295
0.0027782
0.0031205
0.00199823
0.00333794
0.00453248
0.00406196
0.0034559
0.00349312
0.00412227
0.00477442
0.00415129
0.00426214
0.00424234
0.00206167
0.00361753
0.0039325
0.00513125
0.00354374
0.00431598
0.0042647
0.00372326
0.0059842
0.00435201
0.0075901
0.00567964
0.00373479
0.00325181
0.00407732
0.00369767
0.00371546
0.00345766
0.00386169
0.00396707
0.00340965
0.00345729
0.00385661
0.00395138
0.00418773
0.00417611
0.00345959
0.0031545
0.00199068
0.00457977
0.00401868
0.00389554
0.00360142
0.00314409
0.00498057
0.00296405
0.00299844
0.00707358
0.00551951
0.00721659
0.00451659
0.00219763
0.000668445
-0.000149021
0.00344413
0.00155624
0.000985388
0.00288435
-0.000454925
0.00600992
0.00735649
0.00789123
0.00701321
0.00274195
0.00333314
0.00163789
0.00332804
0.00492803
0.00556229
0.00556052
0.00543379
0.00542625
SCALARS CoVolArea double 1
LOOKUP_TABLE default
4820.37
4833.27
4419.09
4339.51
4581.69
4015.01
5208.22
4630.9
4457.95
3912.49
4623.31
3983.1
6659.15
5319.59
5117.03
5036.77
5787.49
6222.76
6254.09
6123.98
5952.61
6345.88
5242.81
6519.68
5528.7
5508.86
5595.61
5809.44
4872.23
5482.23
5640.1
5889.16
5586.65
5535.87
6105.59
6185.9
5659.46
4598.26
4604.39
5376.58
5447.78
5774.33
5613.88
5366.97
4753
4813.21
5635.97
4920.68
5053
5836.08
4884.92
5480.53
5130.41
5022.39
5874.38
4976.12
5400.72
4662.98
6003.99
6222.33
5912.24
6101.07
5627.05
6124.96
5566.85
6130.4
4976.65
5788.41
6926
5321.79
6299.95
5109.19
5390.3
5661.69
4893.4
6816.69
5175.15
5337.34
5519.14
4907.28
5703.69
4687.67
5392.79
4640.86
5436.06
4656.6
5542.93
6069.61
5848.98
6382.69
5425.19
5636.31
5344.42
5392.37
5940.88
5514.14
5507.22
5147.57
6820.65
5636.44
5269.63
5673.52
4196.43
5899.28
6942.37
6841.94
5780.96
4734.62
5962.43
4982.5
6090.87
5219.2
5343.32
5981.53
5366.28
5397.5
5822.49
5095.11
5871.62
6091.71
5297.73
5682.16
5554.05
5891.48
6433.68
5554.52
5729.61
5476.02
5976.5
5179.56
5231.18
6111.7
4661.28
7050.83
4736.83
5339.45
5063.82
4278.78
5295.54
5172.2
5503.71
5512.58
5394
5527.67
5575.2
5648.18
5169.37
6302.37
5771.27
5493.45
6114.93
6271.88
5959.76
5387.4
5508.74
5612.77
6542.14
6058.4
5656.13
6671.99
4806
5096.26
5641.61
5121.23
5068.45
5843.3
4948.29
5564.66
4586.92
4665.6
5266.19
4755.98
4825.52
4749
5427.44
4772.52
4762.43
5740.59
4919.93
6037.95
5066.75
5170.73
4719.3
5482.84
5140.53
4900.06
4959.12
5287.23
5725.12
6637.97
6628.61
6473.89
4991.43
5515.46
5200.82
4750.71
5104.77
4956.14
5870.82
5060.73
5191.82
5431.79
5165.53
4840.09
5206.85
5574.13
5467.12
4946.68
5109.19
5799.5
4915.13
4998.55
4513.04
4738.74
5095.33
6363.98
6229.85
6535.76
6006.87
6096.32
5904.56
5338.66
6087.26
6026.98
6303.96
5878.76
5734.31
6376.37
5956.11
6028.41
5249.06
5904.07
5546.31
5675.08
5508.9
6157.66
5634.59
5657.07
5621.57
5594.57
6134.1
6771.95
6860.58
6828.63
5362
5675.98
6420.19
5565.82
5035.93
5079.45
6228.97
5631.66
5717.11
6946.66
6157.53
5916.79
5974.1
6629.19
5163.31
5261.32
5306.68
6501.38
5737.65
5655.33
5134.87
5354.27
6276.11
7212.85
7301.04
7056.56
5725.15
5559.38
5149.83
5514.72
6313.54
5478.81
5188.39
5699.84
4940.38
5873.72
5004.09
5659.97
5199.2
4828.48
7020.42
6040.64
5788.41
6311.2
6797.98
5718.75
6010.86
6331.16
5076.78
5530.52
5185.43
4544.92
5650.56
5029.38
5965.64
4721.18
5158.62
5608.96
5246.56
4984.19
5074.34
5402.08
4628.94
4645.05
4577.66
5788.09
4659.47
5381.78
4623.14
4648.27
5288.61
6350.94
6402.02
6466.22
4666.42
4508.06
5457.24
4736.87
4754.97
4731.55
5488.86
5104.58
5141.43
6407.05
5543.67
5424.99
5029.85
5526.42
5346.78
5504.15
5497.07
6157.52
5914.51
5825.11
4969.01
5246.26
5982.92
6583.77
7251.72
6782.22
5020.64
5028.01
5864.96
5061.54
5385.83
5255.12
5823.95
5706.25
5709.59
5949.65
5455.54
5230.14
5860.74
6205.44
5349.91
5196.56
5029.2
5718.85
5220.94
5447.29
5113.62
5089.4
5703.92
6315.03
6356.08
6202.86
5577.22
5696.11
6173.28
5571.62
5339.66
5866.63
6256.63
5613.31
5709.98
5369.81
5061.36
4664.65
5451.71
5916.15
5262.37
5898.7
7101.49
5783.92
4855.59
4776.56
5172.29
5725.06
5469.32
7182.43
6834.15
7304.1
5684.79
5590.37
6580.24
5968.54
5746.53
6074.68
6617.98
5404
5137.76
6029.8
4983.47
4884.11
5438.2
6256.48
5050.99
5157.19
4959.16
6102.62
5326.17
5100.02
5412.09
5585.02
6210.48
7065.41
6874.69
7089.66
5231.93
5576.47
5466.19
5952.84
5520.17
5224.91
5281.34
5400.49
5976.34
4889.01
5353.24
4857.65
5731.8
5429.27
5565.92
5178.91
5303.86
5832.5
5724.74
5913.56
5517.88
6204.99
5853.9
5792.85
4833.86
5547.26
5646.1
6711.05
6612.38
6749.87
5678.45
5510.37
6112.81
5247.54
5163.6
5358.77
5556.65
5690.33
5911.18
6483.34
5950.34
5830.73
5923.59
6457.17
5629.91
5746.38
5664.69
5503.54
5329.09
5109.63
5436.18
5357.6
6202.24
6816.21
6832.3
6274.42
5394.48
5166.21
6796.18
5117.52
4754.83
4857.5
4782.57
5176.78
5370.24
4835.58
4816.41
4797.78
5147.71
6860.4
5315.1
6326.47
5397.28
5186.33
5620.51
4021.1
4044.64
5706.78
5296.38
8579.76
7452.48
7337.06
5182.82
5036.59
5302.6
5016.08
4981.98
5035.01
5403.65
5145.5
4171.77
5316.11
4626.89
4757.98
4316.5
5114.47
5510.1
5433.57
5517.76
5494.98
5144.84
5056.43
5273.48
5240.95
5450.56
6016.6
6005.2
6038.66
5120.05
5590.35
5004.66
5057.44
5483.97
5343.82
5511.06
5825.8
5423.69
5450.44
5097.22
5699.9
4806.65
4793.1
5567.72
4972.29
5473.01
4959.09
5808.43
6266.08
6422.98
6157.65
5454.88
5917.64
5169
5835.12
6041.74
4882.2
5352.97
4765.02
5351.77
6268.93
4644.8
5459.75
4708.16
4759.13
5468.63
7082.68
6531.12
6784.74
5699.8
6158.7
5537.8
5649.3
6093.29
5944.29
5857.92
5710.69
5928.29
6325.73
5571.41
5977.7
5452.17
5440.84
5772.95
6926.72
6846.52
6839.13
4154.19
5124.84
4258.34
4594.03
5490.26
5290.52
5574.32
5210.01
5211.01
5417
5626.95
5567.18
5355.51
5273.87
5645.19
6162.86
6177.85
6160.54
5396.49
6166.33
5676.27
5322.81
5924.59
5683.39
5508.7
5491.95
4880.75
5828.39
5674.86
5782.12
5377.94
4967.58
5378.91
7435.37
7074.09
7184.05
5165.67
6309.46
6140.77
5858.58
6797.04
5022.51
5350.37
4814.69
4792.73
5413.9
5317.03
6059.29
5187.14
4854.6
5302.7
5918.17
5543.48
6173.55
SCALARS SignedDistance double 1
LOOKUP_TABLE default
259.363
273.68
258.802
265.022
214.459
287.459
352.249
212.856
258.805
287.046
250.615
274.014
297.546
281.854
280.895
285.94
262.459
242.659
235.996
247.039
213.7
279.152
288.823
307.613
257.528
255.352
261.495
256.311
296.565
273.977
229.694
251.225
268.52
267.674
216.416
210.29
317.818
305.793
300.601
276.981
269.754
287.454
277.78
286.59
261.571
275.314
289.54
287.484
285.7
289.589
283.19
266.998
252.264
288.144
285.866
256.852
265.495
271.209
249.917
255.623
264.382
249.269
217.626
230.838
221.301
222.982
256.003
219.475
228.178
220.381
202.935
237.936
277.928
263.128
265.388
296.551
282.604
298.491
295.074
289.594
296.037
297.963
297.541
284.716
264.955
265.769
263.522
266.36
247
252.133
225.889
268.045
264.626
257.903
267.015
248.301
253.485
259.614
263.381
260.13
240.348
263.869
315.098
303.194
340.175
236.123
224.189
265.419
227.082
246.121
212.862
229.956
259.717
249.32
249.605
273.396
263.089
277.817
201.084
230.192
235.073
253.008
285.911
195.477
195.723
289.679
254.476
244.711
319.152
280.095
279.462
324.949
321.085
352.098
327.308
270.171
267.257
306.739
281.742
265.095
268.027
266.327
266.215
271.226
276.373
283.909
296.394
256.922
272.66
273.266
237.827
219.46
250.06
281.947
266.274
262.326
271.279
297.857
265.94
308.129
276.219
289.991
266.079
266.029
255.855
295.179
280.392
291.887
271.119
273.224
281.561
274.432
280.995
280.701
285.177
282.438
277.869
293.651
288.102
294.484
290.189
288.407
283.541
285.145
286.125
283.224
284.223
290.031
289.974
294.519
291.958
289.924
252.259
251.927
272.321
260.656
257.321
255.773
264.421
290.642
288.786
285.487
285.984
287.677
286.235
283.803
261.401
259.636
267.516
264.48
256.949
256.569
278.376
265.662
274.689
282.506
283.192
272.445
250.486
262.105
256.729
247.139
246.056
248.095
239.473
271.228
255.852
244.65
252.135
252.762
249.243
253.977
213.355
217.479
214.655
231.644
224.377
225.312
230.546
226.014
234.95
255.462
240.005
239.357
263.192
275.471
247.083
246.511
236.251
236.017
209.501
214.917
214.76
231.325
220.832
229.48
220.014
230.147
235.215
226.835
242.072
197.438
201.068
202.835
242.337
218.336
219.968
230.334
217.925
206.351
282.191
247.455
263.552
291.952
299.888
254.062
243.61
282.627
266.163
269.751
237.522
233.801
285.136
278.223
296.089
292.023
284.334
290.072
291.648
264.374
290.789
293.711
279.618
283.576
290.455
284.659
306.928
294.625
306.889
287.341
292.424
296.05
295.461
290.935
291.442
291.811
292.768
291.002
285.129
303.15
297.024
303.689
286.162
291.18
292.94
298.115
299.206
303.103
272.517
276.419
275.996
273.253
257.692
262.164
255.547
268.024
269.302
262.602
264.473
266.892
270.39
273.635
236.98
238.487
219.749
258.745
248.457
254.542
246.423
251.726
261.288
269.063
264.813
261.717
274.128
269.646
276.073
275.678
261.347
265.315
262.776
252.186
254.383
264.653
260.007
262.195
261.196
271.118
250.69
252.747
259.211
254.069
250.313
251.266
259.975
255.533
258.936
272.467
261.356
258.032
256.055
253.681
262.59
255.252
266.692
260.959
269.006
217.403
223.643
278.991
254.508
267.564
236.493
254.61
331.093
329.144
348.497
284.976
309.646
288.359
322.336
323.568
316.164
276.432
294.623
274.413
219.388
217.471
238.773
226.535
238.272
228.505
238.877
284.52
267.594
220.15
243.655
248.294
246.404
247.5
251.71
234.543
247.072
225.467
225.667
243.987
219.954
215.354
210.885
229.195
213.825
221.034
260.165
252.696
258.53
259.76
253.864
262.813
234.042
247.851
234.214
280.437
276.432
285.907
263.14
273.379
271.85
273.438
273.262
267.028
202.54
211.44
219.31
220.302
213.158
206.802
253.768
228.011
248.065
254.954
250.489
240.029
262.057
270.634
224.552
252.331
303.002
272.569
284.042
198.734
191.18
201.496
190.693
200.623
194.071
205.644
269.586
261.796
253.878
288.887
274.054
307.871
226.808
248.12
221.6
226.847
225.402
261.826
282.907
273.677
322.227
306.502
286.557
300.46
313.506
270.062
286.73
317.789
306.328
289.649
310.861
328.401
334.81
351.692
345.199
322.458
336.282
313.942
318.507
344.059
327.581
349.273
345.694
338.171
271.059
266.612
278.232
273.808
268.3
268.473
267.453
322.364
315.445
278.226
291.578
286.175
302.995
287.994
259.738
264.5
259.585
268.067
267.517
269.586
272.813
268.776
270.803
274.326
271.827
268.565
262.421
270.711
265.737
262.085
266.804
262.244
262.706
278.538
270.051
277.106
267.894
275.202
289.435
292.995
275.707
278.381
297.531
291.283
292.199
277.181
287.137
273.96
241.639
267.461
258.137
250.297
261.923
278.333
280.811
278.583
272.517
268.9
277.071
261.042
267.372
280.801
283.467
268.759
275.679
269.573
247.921
224.571
237.789
245.512
248.537
207.016
235.514
218.635
205.822
211.407
264.234
254.653
260.671
262.968
251.659
227.873
238.148
242.714
322.387
291.884
309.093
298.058
276.872
266.528
261.324
263.123
271.319
277.389
257.791
266.33
262.491
260.707
261.325
272.05
263.675
268.373
262.039
274.032
268.021
260.529
264.95
321.911
316.108
320.031
303.201
284.245
225.766
261.771
240.732
256.467
279.82
275.645
292.046
277.268
298.536
300.279
303.637
304.823
307.733
255.734
251.173
250.601
276.812
292.029
293.504
310.222
303.048
275.159
261.323
300.164
278.932
305.435
