# vtk DataFile Version 4.2
vtk output
ASCII
DATASET POLYDATA
POINTS 642 double
-364.467 556.347 97.7968
363 554.322 97.6333
-364.392 -622.068 98.7965
363.134 -620.372 98.9238
-0.0925062 -405 700.006
-0.108485 327.486 682.684
-0.0945455 -388.911 -477.119
-0.0432159 337.381 -500.446
592.47 -31.2595 -267.905
582.606 -33.0588 458.749
-595.133 -31.1791 -269.425
-585.585 -33.0631 460.386
-552.231 309.207 308.175
-343.189 178.995 654.063
-212.682 524.175 441.444
212.063 523.119 440.802
-0.0481466 659.877 97.9306
215.662 531.915 -251.252
-216.193 532.942 -251.895
-350.952 184.093 -468.667
-571.884 320.687 -120.218
-689.22 -32.0559 97.2429
342.197 178.361 652.517
549.452 307.363 307.188
-349.476 -250.048 664.757
-0.0603179 -32.9765 791.339
-558.8 -378.052 -115.062
-560.391 -379.558 312.643
-0.0827656 -31.4652 -599.157
-344.708 -245.292 -458.835
568.783 318.859 -119.088
350.038 183.72 -467.651
557.967 -378.186 311.748
347.981 -249.421 662.872
217.351 -603.121 451.107
-217.811 -604.067 451.702
-0.138985 -727.718 100.155
-212.44 -587.918 -244.882
212.119 -587.214 -244.458
343.945 -244.936 -457.677
557.036 -376.971 -114.546
686.951 -32.1507 97.2435
-478.677 451.583 207.941
-403.742 441.14 389.577
-300.1 564.453 277.765
-482.784 77.4138 575.647
-470.983 257.483 500.574
-590.839 144.901 395.749
-110.05 442.205 578.59
-290.252 369.157 568.82
-178.386 264.962 691.841
-113.031 625.41 279.541
-189.483 634.933 98.0982
109.773 441.753 578.102
-0.0571417 550.04 458.015
189.261 634.585 98.0092
112.699 624.614 279.317
299.041 562.739 277.237
-113.302 629.459 -85.0048
-302.445 566.799 -83.1989
302.376 567.019 -83.1339
113.021 628.482 -84.6949
-112.808 454.805 -395.306
-0.0661436 562.659 -270.596
112.583 454.418 -394.929
-414.609 452.17 -201.335
-488.602 461.033 -15.5684
-182.438 272.363 -507.901
-298.038 379.177 -384.055
-610.107 151.412 -208.717
-486.767 267.755 -317.06
-494.377 81.235 -389.826
-595.845 335.71 96.875
-670.877 -31.0486 -93.0616
-670.983 152.999 -17.2487
-654.679 148.848 208.235
-660.993 -33.3442 286.105
401.873 439.245 388.403
476.303 449.259 207.235
177.827 264.367 690.653
289.433 368.218 567.741
588.198 144.229 394.538
469.352 256.501 499.26
481.092 77.0166 574.147
-181.233 79.7343 756.154
-0.0914754 155.781 763.493
-484.199 -144.325 577.396
-362.874 -33.0186 685.114
-0.057945 -225.004 770.46
-182.152 -147.107 758.331
-182.839 -338.693 705.832
-656.642 -214.375 210.648
-595.429 -212.596 397.937
-597.168 -212.237 -202.09
-656.764 -213.978 -14.3083
-481.359 -520.067 210.115
-589.29 -397.453 98.4181
-480.067 -518.282 -12.4573
-364.651 -31.3616 -490.292
-486.18 -143.031 -381.789
-0.0490693 159.387 -577.596
-183.779 82.1421 -568.299
-179.068 -330.702 -494.353
-180.719 -143.632 -556.484
-0.0391663 -216.99 -557.569
297.307 378.288 -383.164
182.081 271.967 -507.139
486.375 458.945 -15.0616
412.947 450.402 -200.238
492.352 80.6268 -387.972
484.525 266.438 -315.254
606.234 150.304 -206.79
479.762 -518.552 209.789
409.325 -513.427 395.314
302.788 -636.362 281.073
482.497 -143.833 575.76
476.651 -327.999 506.238
592.611 -211.776 396.556
113.419 -524.309 595.548
298.129 -446.172 582.315
182.582 -338.354 705.177
114.265 -702.582 284.026
188.449 -697.855 99.6608
-113.663 -524.78 596.047
-0.0453318 -635.79 471.565
-188.856 -698.929 99.6379
-114.414 -703.148 284.141
-303.478 -637.389 281.329
112.461 -683.97 -80.9793
298.436 -625.399 -80.086
-299.126 -626.589 -80.321
-112.693 -684.415 -81.0625
111.045 -507.119 -381.727
-0.0609139 -606.914 -257.299
-111.262 -507.432 -382.067
404.729 -506.448 -194.106
478.253 -516.532 -12.1789
178.516 -329.927 -492.674
292.16 -436.281 -374.476
595.422 -211.738 -201.249
474.266 -325.203 -306.497
484.916 -142.811 -380.643
586.474 -395.829 98.4029
666.835 -31.2312 -91.9304
655.09 -213.42 -14.2569
652.752 -213.368 210.114
657.165 -33.399 284.953
181.827 -146.97 757.678
362.06 -33.0068 683.891
180.678 79.4863 754.855
-410.765 -514.808 396.186
-298.888 -447.054 583.335
-478.747 -329.158 507.858
-292.632 -436.848 -375.142
-405.619 -507.38 -194.654
-475.425 -325.862 -307.423
364.471 -31.3188 -490.011
180.082 -143.354 -554.908
183.435 82.0951 -567.618
650.42 147.59 207.534
666.398 151.806 -16.5894
592.477 333.818 96.8642
-425.988 509.297 153.378
-394.555 515.521 245.127
-335.378 566.648 189.028
-484.559 380.795 352.339
-445.762 451.605 301.771
-521.414 384.702 259.84
-258.901 550.231 362.531
-355.905 508.313 336.668
-312.26 489.416 419.489
-539.262 22.7483 522.082
-544.112 113.028 490.64
-593.933 57.0065 431.184
-412.482 221.239 583.087
-481.746 169.931 542.71
-417.031 129.824 619.872
-576.488 229.076 354.508
-536.358 203.872 451.84
-517.512 286.743 408.236
-55.5639 388.17 634.786
-145.567 357.899 641.133
-90.1148 299.632 693.323
-254.284 452.055 510.002
-202.471 410.45 578.628
-162.597 487.454 513.577
-263.162 224.344 678.348
-236.687 320.002 634.659
-320.112 277.543 617.413
-441.451 352.95 448.383
-385.372 317.743 540.113
-351.072 410.392 483.91
-248.372 608.218 189.306
-279.45 601.902 98.2023
-165.255 582.651 364.019
-208.588 601.708 280.771
-95.9656 655.168 97.9812
-152.61 637.24 189.982
-57.5046 650.884 189.761
55.3291 387.93 634.463
-0.0959405 447.82 584.516
107.481 544.045 454.225
55.6456 501.376 522.293
162.195 486.772 513.01
-55.8355 501.615 522.511
-107.736 544.379 454.46
278.667 600.745 98.078
247.597 606.73 188.982
334.074 564.73 188.694
57.3555 650.911 189.736
152.219 636.299 189.749
95.8325 654.806 97.9722
258.065 548.801 361.872
208.007 600.459 280.406
164.797 581.721 363.637
-57.0977 596.489 372.967
56.9551 596.535 373.018
-0.0729987 631.924 281.381
-248.528 608.94 6.62021
-336.274 566.021 6.50628
-57.5199 653.395 5.6198
-152.739 638.693 5.79549
-261.709 554.954 -169.623
-209.418 604.552 -85.892
-166.603 588.765 -171.427
335.336 564.856 6.49086
248.149 608.145 6.68483
166.247 587.855 -171.059
209.134 603.483 -85.5158
261.061 553.674 -168.916
152.573 638.207 5.95903
57.3747 653.079 5.70374
-57.0299 400.471 -453.343
-0.0489179 461.245 -401.984
56.9072 400.342 -453.187
-109.405 555.07 -265.902
-56.9735 514.665 -337.264
-166.16 499.3 -327.688
165.756 498.557 -327.113
56.8352 514.498 -337.141
109.164 554.535 -265.603
-0.103329 638.521 -87.5864
57.3364 604 -180.988
-57.5389 604.432 -181.147
-402.183 523.519 -52.072
-430.753 514.06 40.3093
-319.221 498.904 -230.37
-363.137 516.867 -145.092
-536.506 396.156 -69.6406
-456.464 461.727 -110.411
-499.672 392.172 -164.139
-92.2261 308.23 -510.23
-149.582 369.056 -459.265
-328.489 285.655 -433.084
-242.878 329.766 -452.001
-268.913 230.426 -493.564
-207.645 421.983 -395.098
-260.397 462.64 -323.423
-609.484 60.7523 -243.14
-560.762 118.402 -305.649
-550.502 25.5386 -333.857
-536.393 298.432 -222.939
-554.182 212.214 -266.684
-596.805 238.671 -166.973
-428.197 134.866 -436.079
-496.012 176.466 -358.679
-424.703 229.188 -399.927
-362.015 422.499 -298.923
-398.431 329.225 -357.458
-457.072 365.772 -264.308
-490.478 462.894 96.6824
-592.84 333.951 -12.774
-548.389 402.792 40.0585
-542.627 398.062 152.91
-581.495 327.161 204.176
-639.681 -31.1721 -183.877
-651.059 60.9388 -154.23
-690.367 61.7727 38.9732
-680.366 62.0345 -57.2567
-684.652 -31.0922 1.83882
-647.178 154.241 -114.615
-630.494 240.513 -71.0996
-633.813 57.0342 344.291
-629.288 -33.1689 375.792
-609.367 231.361 259.759
-626.679 147.755 303.848
-680.502 -33.1043 192.694
-661.816 58.2114 248.467
-678.729 59.6554 153.247
-642.182 248.512 39.2869
-674.555 154.542 96.5173
-636.411 246.165 153.581
392.838 513.441 244.553
424.118 507.023 153.006
311.104 487.857 418.512
354.47 506.468 335.823
518.513 382.42 258.748
443.579 449.559 300.837
481.73 378.49 351.006
89.8133 299.293 692.73
145.176 357.354 640.328
319.173 276.738 616.017
236.029 319.26 633.443
262.311 223.625 676.706
201.966 409.705 577.787
253.523 450.986 509.127
591.081 56.6737 429.777
541.88 112.463 489.177
537.103 22.5758 520.602
515.731 285.534 407.339
534.275 203.041 450.546
574.183 228.03 353.677
415.694 129.276 618.356
479.972 169.211 541.198
411.112 220.427 581.586
349.777 408.942 482.74
384.186 316.734 538.92
439.747 351.447 447.247
-90.6869 214.057 736.374
-0.0992973 244.702 729.335
-265.474 131.677 712.426
-181.93 174.699 730.695
-0.0882531 62.6445 784.413
-91.7413 119.211 767.147
-91.9222 24.3923 782.791
-540.475 -88.9073 522.942
-490.294 -32.9765 582.851
-358.782 -142.108 678.86
-427.96 -89.3211 636.906
-421.204 -198.725 625.74
-427.262 22.9534 635.987
-357.72 74.6399 676.753
-0.0554119 -318.11 743.79
-92.5836 -285.654 748.307
-92.4867 -375.359 709.159
-92.1318 -90.64 784.228
-92.6243 -187.367 772.026
-0.0586902 -129.254 786.179
-269.17 -296.606 691.13
-185.584 -245.454 742
-269.436 -201.239 721.17
-275.473 23.9114 728.378
-276.258 -90.6246 730.112
-183.899 -33.0061 765.418
-637.24 -123.788 345.339
-596.25 -123.507 432.308
-680.273 -124.568 155.063
-666.434 -124.681 250.028
-583.563 -298.566 357.923
-632.155 -215.295 306.111
-616.082 -299.92 263.542
-599.959 -122.642 -237.785
-640.596 -122.873 -150.298
-615.229 -299.104 -66.7659
-633.868 -215.16 -110.351
-583.055 -297.511 -160.874
-668.713 -123.916 -54.5292
-681.902 -124.4 40.8166
-427.091 -576.542 155
-487.51 -526.09 98.518
-426.513 -575.441 42.5211
-582.007 -393.058 206.647
-541.157 -462.965 154.709
-526.129 -453.925 263.043
-524.408 -452.064 -65.3218
-540.548 -462.384 42.3033
-581.029 -392.304 -9.62252
-666.185 -217.041 98.2188
-631.567 -309.379 41.4411
-631.999 -309.661 155.312
-496.938 -31.2759 -392.172
-544.753 -87.7066 -329.459
-363.591 77.6297 -488.584
-434.283 25.4477 -446.881
-419.112 -195.957 -425.252
-429.916 -87.8431 -441.603
-358.995 -140.132 -481.25
-0.0471972 251.171 -545.318
-92.3647 219.241 -551.276
-92.6749 26.1401 -592.586
-93.2113 122.298 -581.16
-0.0506747 64.7546 -596.682
-185.139 178.802 -544.552
-270.542 135.321 -526.617
-91.3557 -363.69 -492.717
-91.2388 -277.339 -533.813
-0.0814604 -305.112 -521.658
-265.835 -196.861 -514.803
-181.941 -239.352 -530.96
-263.969 -290.292 -481.676
-0.0742845 -125.914 -587.23
-91.2223 -181.871 -564.309
-91.7926 -88.3069 -587.092
[...]
POINT_DATA 642
SCALARS Mean_Curvature double 1
LOOKUP_TABLE default
0.00279382
0.00263059
0.00322813
0.0031487
0.00338406
0.00334274
0.00139071
0.00334942
0.00343278
0.00325079
0.00347771
0.00331929
0.0019615
0.00276799
0.0029068
0.00290182
0.00249987
0.00274757
0.00275034
0.00248164
0.00273988
0.00244005
0.00278415
0.00188386
0.00340688
0.00266167
0.00277146
0.00270652
0.00307378
0.002782
0.00273447
0.00262517
0.00274992
0.00329013
0.00284255
0.00286134
0.00313689
0.00269685
0.00270465
0.00279376
0.00279804
0.00274668
0.00228646
0.00298728
0.00294966
0.00287628
0.00282576
0.0028602
0.00282908
0.00267325
0.00296274
0.00304917
0.00284566
0.00282717
0.00240939
0.00300983
0.00298256
0.00294926
0.00287582
0.00237974
0.0029163
0.00275886
0.00289097
0.00294011
0.00290176
0.00294924
0.00320414
0.00288866
0.0022953
0.00305028
0.00294182
0.00306781
0.00313291
0.00299714
0.00330867
0.00272297
0.0027828
0.00295296
0.00218152
0.00292698
0.00269976
0.00287048
0.0028443
0.00289086
0.00299915
0.0029456
0.00236334
0.00278707
0.00261259
0.00214905
0.00275371
0.00283291
0.00269929
0.00286529
0.00262884
0.00265311
0.00294666
0.00282204
0.00220859
0.00261977
0.00274208
0.00313694
0.00321287
0.00247383
0.00187992
0.00236466
0.00288081
0.00315182
0.00293648
0.00312556
0.00294307
0.00296842
0.00279695
0.00290903
0.003141
0.0025161
0.00278553
0.00270241
0.00294321
0.00290982
0.00282788
0.00304119
0.00242602
0.00295423
0.0029429
0.00242945
0.00303893
0.0030731
0.00293467
0.00274891
0.00272033
0.00288345
0.00315486
0.000821445
0.00313535
0.00290157
0.00279459
0.00290218
0.00290284
0.00287504
0.00285738
0.00269934
0.00294979
0.00272439
0.00291558
0.00274705
0.00268934
0.00225457
0.00288297
0.00296339
0.0028904
0.00289777
0.00280085
0.00287964
0.00288688
0.00285078
0.00258724
0.00235384
0.00322049
0.00245634
0.00325936
0.00307034
0.00227241
0.00294472
0.00295974
0.00295934
0.00298087
0.00241461
0.00298188
0.00297138
0.00293447
0.00285441
0.00287765
0.00285923
0.00286465
0.0028902
0.00287813
0.00266842
0.00288543
0.00252107
0.00261741
0.00261676
0.00297862
0.00273662
0.00278583
0.00272282
0.00283566
0.00258963
0.00267722
0.00243053
0.0026059
0.00270408
0.00295756
0.00282396
0.00298235
0.00296151
0.00314226
0.00289108
0.00276581
0.0026037
0.00270506
0.00286028
0.00274343
0.00272929
0.00275744
0.00281689
0.00286521
0.00289655
0.0029371
0.00287249
0.00281716
0.00312835
0.00297786
0.00296906
0.00296284
0.00290571
0.00301338
0.00247524
0.00279856
0.00173457
0.00277562
0.0027789
0.00225655
0.00272019
0.00282779
0.00175092
0.00281367
0.00283482
0.00260822
0.00212782
0.00282792
0.00275952
0.00290485
0.0029107
0.00292992
0.00283582
0.00287701
0.00291448
0.00291357
0.0029107
0.00284196
0.00292715
0.00278971
0.00281009
0.0037619
0.00306539
0.00292499
0.00312991
0.00332305
0.00276918
0.00285952
0.0028937
0.00290603
0.00240882
0.00289006
0.00267948
0.00292642
0.00250681
0.0030678
0.00343822
0.00293539
0.00293811
0.00282572
0.00278336
0.00353137
0.0028309
0.00297208
0.00303469
0.00307104
0.00293183
0.00298324
0.00310571
0.00306685
0.00289382
0.00308967
0.00293209
0.00314469
0.00358157
0.00375854
0.00171514
0.00282396
0.00325443
0.0028353
0.00283075
0.00169266
0.00238906
0.0025737
0.00220278
0.0017522
0.0029514
0.00358272
0.00342315
0.00294729
0.00218177
0.00291752
0.0029757
0.00227723
0.00302315
0.00274192
0.00296724
0.00260584
0.00268259
0.00258023
0.00276321
0.00279652
0.00274433
0.00287805
0.00287838
0.00290995
0.00268475
0.00288932
0.00279666
0.00287609
0.00287687
0.00285152
0.00267417
0.00265609
0.00245343
0.00299447
0.00296444
0.00284529
0.00297547
0.00296864
0.00297993
0.00294068
0.00289308
0.00288736
0.00198737
0.00271842
0.00307537
0.00288761
0.00281384
0.00337253
0.00297452
0.00293167
0.00290578
0.00268472
0.00247535
0.00288064
0.00359093
0.00331422
0.00272009
0.00263432
0.00269136
0.00295784
0.00281459
0.00261177
0.00306506
0.00271753
0.00267133
0.00279079
0.00241431
0.00242122
0.00260472
0.00292377
0.00275094
0.00263415
0.00276908
0.00269144
0.00297452
0.00292763
0.00285013
0.00289748
0.00268205
0.00278503
0.00291579
0.00285257
0.0029475
0.00290471
0.00295005
0.00306444
0.00244978
0.00272441
0.00307696
0.00274128
0.00247303
0.0027616
0.0029222
0.00277786
0.00298641
0.00326357
0.00320261
0.00267891
0.00309622
0.00312484
0.00304841
0.00139322
0.00276387
0.00286463
0.00269905
0.00346467
0.00217192
0.00320428
0.00293989
0.00281993
0.00235821
0.00289663
0.00291428
0.00241716
0.00292305
0.0026101
0.0028341
0.00263574
0.00318789
0.0036483
0.00285723
0.00276668
0.00332462
0.00298468
0.00302142
0.00314136
0.0030104
0.00315663
0.00295332
0.00291339
0.00305333
0.00280845
0.00290736
0.00293513
0.00300424
0.00293297
0.00300761
0.00273067
0.00258714
0.00272172
0.00274121
0.00267329
0.0027808
0.00283787
0.00304024
0.00293575
0.00283595
0.00257661
0.00287356
0.00291157
0.00288163
0.0026546
0.00271658
0.00283865
0.00279813
0.00300699
0.00284694
0.00276638
0.00287884
0.0028772
0.00289899
0.00306566
0.00288889
0.00292918
0.00282217
0.00293572
0.00293587
0.00257166
0.00265889
0.002689
0.00345247
0.00293908
0.00304786
0.002905
0.00296142
0.00296104
0.00295403
0.00297709
0.00292374
0.00301323
0.00295896
0.00252004
0.0027961
0.00252967
0.00307142
0.00299957
0.00299392
0.00283841
0.00328063
0.00276228
0.00292645
0.00289947
0.00352064
0.0026964
0.00280292
0.00254163
0.00277865
0.00279471
0.00258069
0.00317885
0.00289276
0.00274378
0.00323334
0.00263441
0.00274131
0.00276715
0.00262514
0.00316467
0.000810452
0.00316784
0.00322261
0.00319749
0.0032559
0.00331283
0.00318104
0.00319022
0.00116361
0.00291944
0.00293786
0.00276429
0.00286447
0.00288901
0.00287336
0.00278725
0.00284332
0.00288445
0.00319654
0.00323091
0.00291023
0.00279476
0.00282587
0.00272302
0.00282386
0.00251395
0.00284824
0.0023598
0.00284003
0.00278288
0.00278141
0.00271298
0.00275598
0.0028529
0.00288923
0.00288877
0.00288286
0.00289885
0.00277702
0.00291454
0.00284108
0.0028152
0.00286582
0.00256907
0.00295735
0.00275347
0.00179515
0.00291451
0.00265138
0.00302937
0.00270648
0.00280808
0.00274697
0.00260371
0.00304339
0.0024836
0.00280211
0.00266511
0.00298439
0.00310805
0.00331769
0.00343544
0.00259067
0.00299583
0.00291764
0.00286585
0.00292502
0.00277907
0.00207669
0.00300621
0.00293049
0.0029923
0.00297161
0.00276014
0.0026031
0.00269123
0.00263807
0.00279041
0.00292498
0.00294007
0.00275919
0.00279762
0.00290047
0.00288282
0.00288248
0.00289793
0.00288275
0.00257572
0.00281887
0.00288727
0.00285528
0.00288259
0.00291049
0.00291826
0.00285312
0.00326969
0.00279105
0.00278321
0.00268895
0.0028949
0.00277009
0.00285479
0.0027964
0.00283071
0.0028741
0.00278677
0.00283753
0.00277027
0.00278447
0.00282959
0.00288369
0.00287632
0.00288207
0.00303092
0.002659
0.00247259
0.00311184
0.00292945
0.00313163
0.00312273
0.00237998
0.00270999
0.00278211
0.00277762
0.00310602
0.00268852
0.00325966
0.00302248
0.00228541
0.00278666
0.00271987
0.00279563
0.00212799
0.00216669
0.00249894
0.00172478
0.00313828
0.00328418
0.00277492
0.00378676
0.00327222
0.00314759
0.0031903
0.00310941
0.00300371
0.00310083
0.00347816
0.0029776
0.00339285
SCALARS CoVolArea double 1
LOOKUP_TABLE default
7592.76
7562.42
7558.3
7526.64
7768.85
7434.7
7420.89
7714.59
7597.47
7413.41
7651.06
7464.11
9688.69
9640.74
9643.73
9613.95
9784
9908.51
9933.89
9972.49
10058.7
9782.59
9600.67
9623.47
9869.23
9783.79
9730.56
9791.78
9797.76
9689.62
9973.66
9930.35
9724.28
9829.26
10029.3
10052.4
9788.73
9609.77
9591.17
9657.62
9681.63
9694.99
9270.75
10076.6
9216.73
9147.99
10044.1
9117.15
9106.96
10054.5
9142.31
10172.2
9275.85
9093.81
10092.7
9252.32
10158.5
9175.11
10301.3
9383.78
9342.96
10293.9
9456.11
10376.6
9443.14
10470.8
9415.22
9464.47
10466.9
9524.37
10519.1
9439.44
10335
9364.9
10406.8
10201.1
9169.91
10020.3
9211.12
9120.27
10013.9
9048.65
9985.4
9097.01
10171.2
9198.15
9254.91
10192.2
9417.43
10312.8
9490.83
10169.4
9230.33
9267.08
10201
9311.25
10203.1
9236.7
10298.2
9289.95
9450.78
10352.1
9090.79
10188.7
9163.17
10425.7
9448.4
9352.04
10412.4
9382.12
10444.7
9440.59
9257.91
10327.9
9366.04
9198.2
10244.6
9161.11
9566.87
10432.9
9468.64
10445.6
9281.94
9580.09
10574
9302.83
10458.5
9399.35
10078.1
9165.53
9195.67
10090.1
9058.81
10050.9
9068.48
10103.3
9189.82
9076.92
10077.1
9218.25
10123.6
9249.26
10135
9297.47
10129
10096.3
9100.44
10288.3
10146.2
10147.2
10377.6
10472.4
10306.8
10105.9
10140
10161.4
10253.2
10167.7
10330.7
10120.5
10304
10242.8
9136.35
9321.21
9095.88
9978.39
9296.1
9137.42
9101.74
9285.56
9976.58
8990.66
9207.95
8968.33
9943.78
9223.55
9060.58
9065.7
9210.68
9953.83
8951.32
9205.33
8970.85
9950.56
9221.37
9036.65
9062.74
9232.92
9950.34
11152.9
11148.1
11157.9
9336.83
9133.79
10017.1
9333.73
9195.53
9363.11
10096.8
8945.26
9190.89
9964.19
9222.38
9015.96
9229.48
9980.88
9101.34
9306.2
9056.8
10090.7
9345.77
9183.77
9065.84
9307.6
9993.53
11232.6
11223.1
11278.6
9418.51
9194.39
10154.4
9417.81
9325.5
9471.48
10234.3
9153.54
9387.43
10217.1
9450.67
9295.98
9402.79
10149.7
9300.47
9545.76
9294.37
10264.7
9553.58
9359.58
9339.92
9546.04
10249.3
11415.7
11450.4
11457.3
9490.7
9195.13
10311.8
9550.87
9419.1
9588.25
10401.8
9302.34
9553.11
10350.9
9590.46
9384.83
9582.7
10323
9284.75
9587.83
9254.33
10423.4
9667.72
9475.37
9372.07
9627.63
10365.2
11598.5
11621.9
11640.9
9438.38
10347.9
9534.35
9424.63
10105.6
9214.5
9538.95
10193.2
9524.51
9253.41
9624.78
10385.2
9232
8989.2
10064.5
9290.72
9138.83
9325.32
10124.1
11519.1
11409.7
11372.7
9268.98
9087.75
9932.08
9233.58
9077.63
9239.46
9920.05
8959.88
9186.78
9908.8
9203.41
9032.8
9194.83
9914.68
8906.43
9150.15
8932.77
9888.38
9148.69
8995.87
9015.51
9173.32
9895.56
11106.6
11093.3
11090.7
9259.98
8988.12
10016.8
9288.33
9153.69
9326.23
10097.6
9037.41
9280.32
10157.4
9360.34
9223.04
9295.69
10016.4
9317.09
9545.34
9354.1
10165.4
9502.31
9269.6
9347.51
9525.9
10210.5
11287.7
11371.8
11345.8
9271.46
9029.85
10058.6
9300.18
9180.8
9332.75
10091.1
9166.98
9402.69
10081.9
9371.87
9152.86
9413.86
10105
9133.22
9353.94
9080.96
10109.5
9387.2
9225.17
9149.7
9360.45
10081.2
11283.6
11297.9
11297.7
9450.19
9181.83
10256.9
9498.12
9155.31
9422.1
10094
9300.93
9555.08
10199.6
9542.8
9312.37
9561.23
10274.6
8918.36
9213.17
8979.04
10042.4
9266.23
9073.12
9125.75
9302.23
10104.9
11438.5
11386.7
11350.5
9537.41
9293.2
10288.8
9558.81
9355.67
9563.8
10305.5
9145.48
9438.41
10326.8
9529.51
9346.29
9505.64
10270.5
9188.84
9513.84
9209.23
10305.9
9562.4
9321.93
9389.15
9587.28
10340.4
11542.5
11568
11558.9
9087.85
9402.83
9133.89
10131.3
9422.34
9164.67
9363.96
9490.45
10299.6
8976.79
9272.03
8964.53
10158.8
9352.03
9177.83
9114.02
9328.93
10096.1
9393.77
9622.89
9344.7
10353.8
9641.54
9469.11
9313.78
9596.35
10250.4
11410.4
11459.3
11508.8
9429.31
9096.18
10374.1
9537.21
9197.56
9483.84
10241.7
9398.67
9679.11
10445.4
9712.98
9487.76
9705.72
10432.6
9128.48
9456.45
9172.22
10247.6
9500.56
9207.28
9393.58
9561.32
10392.8
11666.1
11672.5
11600.9
9291.49
9033.56
10053.1
9306.92
9053.11
9254.08
9915.53
9066.6
9318.08
9930.83
9275.2
9078.31
9323.64
10058.4
8909.51
9189.26
8915.13
9894.67
9192.23
8983.2
8995.24
9196.98
9904.8
11218.9
11154.1
11147.8
9266.57
9040.1
9971.37
9268.02
9100.4
9285.35
10007.2
8910.65
9140.04
9972.99
9223.54
9046.13
9200.83
9954.88
9112.27
9322.7
9130.5
10014.6
9305.46
9107.2
9121.83
9311.56
10002
11190
11198
11211.1
9300.71
10021.5
9304.47
9324.92
10036.3
9146.33
9343.28
10027.4
9344.76
9178.32
9313.09
10023.1
9197.36
8925.1
10014
9256.76
9060.21
9226.95
9983.22
11225.4
11208.9
11219.6
9533.69
10175.9
9503.94
9491.09
10152
9225.5
9972.9
9246.23
9310.95
10114.2
9245.8
10083.6
9312.32
9264.38
9983.63
11332.6
11251.5
11319.3
9444.31
10338.1
9529.8
9471.17
10191.3
9640.15
10295.4
9626.55
9665.59
10386.1
9335.4
10160.5
9392.28
9409.58
10211.4
11558.7
11516.9
11470.8
9152.7
9977.88
9219.49
9247.66
10006.2
9304.59
10051.8
9328.26
9302.87
10000.4
9368.06
10036.2
9349.91
9346.81
10057.8
11222.2
11250.9
11232.8
9399.84
10059.8
9379.53
9447.59
10211.5
9200.8
10090.9
9286.15
9245.9
10014.6
9545.81
10243.4
9542.65
9531.2
10187
11320.5
11364.5
11402.9
9164.36
10033.1
9251.31
9218.4
9988.8
9456.79
10286.3
9529.83
9440.28
10098.6
9373.97
10025.3
9350.36
9457.23
10258.4
11306.3
11412.1
11275.2
SCALARS SignedDistance double 1
LOOKUP_TABLE default
432.544
451.312
432.467
444.681
346.726
476.575
547.304
359.194
426.16
480.441
409.971
459.09
496.15
471.638
467.56
476.188
435.791
402.483
392.763
389.223
345.396
460.601
483.904
514.96
414.933
427.097
441.541
429.797
452.127
457.344
369.778
397.724
449.371
430.34
360.264
350.998
481.687
481.941
482.952
464.6
455.06
474.894
457.779
474.729
438.76
462.908
486.828
482.036
481.688
487.511
470.866
442.635
423.007
486.18
479.957
428.978
444.191
453.477
413.364
421.234
428.876
416.928
367.139
385.487
372.171
364.97
398.947
368.61
379.371
348.351
342.39
384.409
430.804
426.801
394.581
489.155
470.364
493.592
481.655
480.796
498.254
500.185
500.933
478.143
441.906
442.752
444.527
447.709
404.944
422.545
367.257
447.123
445.128
434.408
445.398
420.238
427.526
437.333
439.104
436.698
375.885
411.476
493.31
476.562
533.878
389.109
375.795
415.378
377.057
397.091
360.687
375.088
437.031
411.999
411.192
460.637
436.597
466.157
336.209
378.068
375.801
391.94
457.362
329.045
327.428
455.607
389.608
399.519
508.079
467.411
461.885
512.259
514.265
550.167
518.725
457.194
451.553
490.75
470.187
446.787
453.847
447.347
448.299
444.084
460.091
472.22
494.631
429.005
457.828
453.501
394.79
364.179
416.393
466.28
449.444
444.041
448.913
477.811
417.018
509.233
422.661
452.531
442.02
444.856
431.355
485.785
464.143
478.083
451.927
454.9
468.303
460.811
471.886
470.359
479.35
474.762
466.741
492.731
483.991
494.063
484.097
482.187
470.823
480.049
482.887
477.459
473.275
484.624
485.064
492.776
490.327
485.789
426.119
425.128
452.478
436.535
424.665
428.44
440.742
485.979
486.167
475.788
482.648
484.034
481.91
473.162
438.292
438.004
448.508
439.166
433.578
425.978
463.69
445.502
458.225
466.542
465.177
454.964
421.628
431.437
422.725
416.547
408.607
415.591
402.059
441.825
428.996
409.749
422.287
417.704
420.271
421.378
360.673
366.025
362.645
387.389
375.509
377.997
385.851
377.732
392.494
417.502
402.352
399.758
408.029
435.064
393.404
391.872
367.146
370.147
348.569
361.708
363.29
380.287
371.823
380.641
371.126
383.501
379.81
361.566
393.871
336.257
338.833
339.831
382.292
352.963
361.229
371.372
359.71
346.65
444.411
382.982
410.778
459.305
478.499
414.148
386.661
445.044
410.063
446.51
358.944
361.332
476.954
464.732
494.309
488.742
471.712
483.625
479.218
406.219
443.359
458.535
464.945
464.014
482.48
472.324
502.204
486.218
507.232
476.419
489.058
496.256
494.346
485.026
491.292
490.495
490.486
488.953
478.133
509.273
499.677
509.658
480.397
489.854
492.735
499.623
502.814
507.984
453.276
458.866
459.262
454.746
430.977
437.936
428.62
449.566
452.308
440.603
444.924
435.425
454.477
458.384
376.696
382.219
355.314
426.463
413.439
421.604
386.486
398.484
421.905
448.997
440.241
436.662
454.77
451.618
458.909
455.262
437.763
446.494
439.101
425.999
428.381
443.269
436.933
441.123
436.132
449.203
422.804
425.349
434.533
427.775
422.925
423.177
439.405
430.549
436.34
445.338
437.344
432.992
418.37
424.983
416.041
413.452
447.337
437.587
449.491
363.458
369.878
429.976
392.371
410.853
380.385
398.72
525.073
520.988
544.079
466.505
487.6
470.874
496.006
508.73
480.805
439.505
457.261
453.448
369.863
365.313
394.713
380.613
391.287
382.174
388.536
447.306
418.387
367.55
385.275
388.029
399.46
397.917
409.22
380.022
398.58
374.292
371.545
392.943
366.344
362.292
358.508
379.156
362.514
370.646
438.234
424.515
430.943
433.577
426.712
440.997
380.28
406.355
384.556
470.052
464.809
474.817
431.576
451.942
452.853
458.252
454.674
444.318
335.857
352.043
359.617
365.273
354.931
345.24
400.713
372.78
398.921
422.47
409.388
393.269
430.208
449.112
366.101
398.078
469.342
430.057
433.352
331.569
322.759
334.983
322.45
336.506
326.129
340.77
442.503
424.426
422.716
435.184
426.758
470.29
370.801
391.074
360.341
350.797
347.777
388.427
466.517
457.674
507.329
483.289
474.424
481.776
495.659
448.059
461.67
497.904
480.099
471.514
485.432
511.47
531.716
549.615
538.963
515.185
533.132
497.144
499.65
538.867
519.176
542.153
537.47
531.976
456.947
448.655
466.692
461.478
453.633
454.699
453.455
518.375
502.039
466.339
478.793
474.526
485.438
475.746
438.606
445.231
436.978
453.288
451.282
453.552
457.531
452.864
457.628
462.338
459.108
454.989
442.67
455.269
448.244
442.599
448.753
431.578
442
463.445
450.39
460.492
450.143
458.824
478.575
489.205
460.705
467.887
492.657
481.153
483.533
460.622
472.952
457.151
385.671
434.156
406.736
417.202
429.268
467.322
470.15
467.359
458.224
451.622
459.483
435.545
444.586
465.791
471.776
448.736
460.09
447.501
413.631
371.426
392.287
410.959
414.94
344.332
383.225
361.379
344.622
353.233
445.436
423.926
433.387
430.517
412.865
376.97
391.225
402.981
505.657
473.171
484.988
476.659
461.158
446.995
442.802
444.581
455.01
462.092
433.769
449.157
442.269
439.883
442.127
456.448
446.127
451.999
430.608
459.589
448.389
423.341
422.778
514.971
482.876
505.21
486.824
471.952
373.287
408.798
386.581
395.566
432.905
461.352
461.222
447.33
499.421
494.076
505.882
509.165
513.83
407.414
389.024
387.714
431.8
464.862
460.259
498.035
477.927
430.55
406.816
468.847
431.962
481.183
