# vtk DataFile Version 4.2
vtk output
ASCII
DATASET POLYDATA
POINTS 642 double
-195.243 293.917 91.0335
185.384 282.038 80.7293
-208.668 -352.173 119.659
195.973 -346.006 123.543
-4.06619 -300.106 470.222
-5.50744 114.677 408.1
1.06589 -204.651 -148.838
-2.36739 202.016 -277.501
327.477 20.3318 -111.463
276.053 -49.8432 291.548
-343.782 22.4827 -115.045
-296.575 -52.403 294.426
-251.609 149.908 178.708
-169.873 48.0925 388.598
-114.613 266.052 240.219
102.17 263.566 238.351
-0.106988 340.373 77.3021
121.81 284.794 -127.28
-123.712 291.556 -130.456
-216.897 113.592 -219.327
-371.636 191.311 -63.6611
-356.031 -35.2118 61.184
163.912 44.3867 380.567
243.012 131.181 178.098
-171.808 -213.425 420.188
-2.54963 -41.8661 479.138
-298.981 -221.394 -13.014
-295.874 -240.337 220.839
-5.36187 48.9762 -282.333
-193.233 -138.166 -187.441
350.342 183.984 -61.3225
211.674 112.772 -221.425
279.478 -235.55 215.733
157.845 -210.033 412.976
112.25 -396.07 335.05
-118.371 -399.765 339.596
-2.38436 -388.807 194.113
-159.889 -297.372 -63.701
149.027 -298.018 -64.112
187.23 -138.348 -178.76
287.163 -215.619 -15.8563
344.09 -31.8666 54.8584
-237.854 241.457 128.52
-191.306 238.064 213.103
-157.223 302.351 174.299
-244.549 4.14261 351.198
-232.194 86.6105 305.322
-288.008 33.357 259.659
-59.7771 204.136 328.037
-132.29 167.411 325.513
-74.1793 87.7735 419.322
-82.7655 324.922 171.734
-101.907 339.141 90.4297
50.0473 203.283 325.766
-0.862329 263.214 256.4
92.2723 337.702 86.2939
71.2863 324.578 172.595
142.8 295.907 172.105
-64.6745 338.113 -20.6844
-190.958 285.731 -33.3667
183.026 279.514 -28.5851
58.7885 337.311 -16.9249
-66.1183 262.681 -218.154
-3.39283 312.629 -143.236
58.4105 260.343 -216.544
-287.137 253.137 -92.8456
-311.583 236.058 -41.9938
-103.928 162.534 -278.232
-188.535 218.796 -191.614
-386.314 118.423 -98.1174
-327.649 162.139 -163.197
-310.797 88.1642 -179.554
-346.726 172.885 5.54636
-364.752 17.9735 -40.4342
-386.147 120.264 -43.2047
-322.857 74.1064 89.1793
-330.056 -65.1182 198.462
171.53 229.723 211.234
221.008 233.02 109.813
63.8248 86.4943 412.437
123.613 162.433 321.186
270.716 34.5339 256.917
221.667 82.3479 299.723
231.848 0.335254 345.817
-76.9894 15.2557 460.032
-5.76054 43.7953 461.374
-249.499 -115.441 357.631
-189.37 -46.8043 410.177
-1.9743 -194.069 473.47
-90.5149 -137.791 465.228
-104.708 -255.231 466.48
-341.854 -147.582 156.351
-309.383 -146.201 261.451
-329.37 -116.384 -67.8863
-346.06 -126.301 31.3236
-264.561 -310.812 171.126
-320.888 -242.05 106.136
-266.837 -294.17 55.9897
-216.723 6.17769 -210.086
-277.07 -69.7382 -154.664
-3.18312 113.354 -311.112
-89.3129 101.749 -286.799
-155.808 -168.793 -176.306
-125.301 -46.1088 -231.345
5.89118 -37.5393 -200.918
180.142 210.116 -185.212
97.7305 159.752 -275.166
292.591 231.521 -36.1565
270.719 250.245 -91.513
298.512 81.5853 -174.442
311.074 158.742 -156.222
365.853 109.008 -93.4788
249.924 -303.139 171.373
200.431 -325.198 289.751
146.696 -381.741 250.892
237.3 -106.059 351.395
232.805 -223.796 332.242
292.61 -143.735 253.771
54.756 -363.275 423.058
148.478 -304.731 403.651
94.9365 -254.209 462.541
52.2812 -427.156 272.903
107.846 -382.443 150.576
-62.3211 -366.524 427.138
-3.61645 -432.82 355.898
-116 -383.146 154.99
-58.9512 -429.164 274.414
-156.239 -388.026 252.399
127.234 -334.868 39.0047
166.827 -333.297 14.393
-175.673 -338.062 18.2551
-131.037 -332.505 39.8038
128.705 -246.123 -116.246
1.17369 -238.733 -71.7186
-131.666 -244.47 -115.554
218.851 -275.528 -49.6686
254.519 -286.947 51.6132
137.325 -170.255 -177.547
165.22 -235.335 -137.507
319.007 -113.695 -64.8868
253.002 -182.652 -110.793
270.788 -69.1454 -148.768
302.927 -236.851 104.663
349.829 10.4275 -34.0527
336.048 -119.298 18.7206
318.495 -146.806 159.906
309.586 -65.6215 192.229
80.1568 -137.285 463.009
181.983 -47.6949 404.786
66.5766 13.7039 452.863
-215.293 -330.521 295.007
-160.477 -307.941 408.493
-249.061 -225.828 341.195
-173.549 -236.1 -140.384
-225.684 -279.265 -51.0939
-261.589 -184.566 -114.403
213.563 10.8209 -199.118
110.733 -54.9032 -231.368
81.745 107.072 -284.811
306.153 62.6429 86.0592
361.819 109.496 -43.1935
323.824 170.042 5.10086
-219.796 269.988 109.725
-196.981 278.398 159.503
-174.502 305.149 139.114
-217.821 204.328 198.092
-212.457 246.642 178.352
-245.354 211.473 142.33
-137.956 291.781 205.153
-177.688 272.905 195.067
-155.264 257.571 227.913
-272.795 -23.3205 324.796
-270.566 19.439 307.45
-295.138 -8.60554 278.696
-208.982 67.0248 348.123
-240.529 45.9786 331.643
-212.865 27.1042 370.671
-276.352 76.8968 231.256
-262.119 61.6942 285.525
-244.55 112.234 252.838
-30.7385 158.617 363.592
-64.5217 142.794 370.689
-41.1213 102.4 418.443
-119.701 221.19 286.772
-95.2297 191.414 328.27
-85.5686 233.314 291.073
-117.515 68.8453 407.53
-106.085 123.234 367.475
-152.614 98.8201 361.947
-205.016 162.715 253.904
-182.542 126.237 315.413
-160.836 203.809 269.597
-136.654 325.641 139.475
-148.819 323.19 95.8468
-103.545 303.829 203.794
-118.987 318.797 175.725
-67.1078 347.69 81.5545
-95.8139 336.571 134.637
-50.8094 335.193 127.608
21.7122 159.353 363.069
-3.65459 203.665 329.115
59.4875 265.381 249.193
28.6928 233.97 297.465
74.8888 231.61 287.494
-36.0194 233.232 298.525
-69.4552 264.851 253.035
133.303 317.738 89.592
123.086 320.596 136.624
159.999 297.088 136.481
45.1248 336.702 128.269
83.3251 335.312 132.414
60.917 347.023 81.897
124.096 286.988 202.876
105.947 314.643 174.847
89.8349 302.058 203.094
-44.5756 298.967 206.699
40.4379 300.602 207.501
0.656512 320.682 170.76
-130.839 329.484 38.4622
-191.023 288.626 24.4844
-41.0108 347.702 32.2554
-83.9376 346.643 37.2186
-157.643 292.206 -79.5505
-110.605 326.466 -21.4445
-91.3606 323.179 -79.2002
185.18 281.113 18.4923
122.664 326.498 35.9153
84.5875 318.005 -76.1653
106.831 323.267 -16.7013
157.814 282.364 -81.1856
78.1725 344.767 39.1201
36.4626 349.778 33.1222
-34.1805 236.064 -251.962
-2.65402 265.228 -222.844
28.3568 235.29 -251.451
-61.473 306.909 -139.834
-34.2528 290.564 -182.898
-95.2118 281.721 -178.165
87.0382 277.683 -175.393
27.6517 289.571 -182.551
53.74 304.088 -139.389
-3.3712 339.434 -22.2587
26.5487 329.017 -85.8103
-34.6527 330.529 -86.2293
-265.763 262.172 -49.3724
-246.761 245.91 2.89048
-215.847 253.501 -100.616
-256.678 270.502 -67.4292
-342.3 218.759 -51.0301
-303.003 251.192 -62.7396
-334.142 231.36 -78.9054
-53.0668 185.036 -281.662
-85.7346 218.967 -253.582
-207.49 165.155 -212.534
-137.067 194.668 -245.374
-151.972 138.193 -266.971
-118.188 244.872 -215.149
-159.013 257.356 -168.285
-368.766 84.598 -110.818
-352.651 105.516 -144.959
-333.919 59.3003 -150.58
-357.586 181.099 -112.031
-365.741 138.151 -136.175
-392.821 149.85 -82.0246
-282.866 105.684 -199.457
-324.964 124.49 -176.927
-293.255 140.564 -195.184
-252.233 234.72 -148.778
-276.642 194.442 -175.933
-309.35 216.027 -133.258
-269.774 219.554 34.7246
-361.673 185.233 -31.9588
-335.867 204.614 -16.4251
-286.34 191.225 51.3608
-296.131 159.203 66.9441
-359.916 21.2643 -76.371
-385.881 90.1429 -71.1655
-367.253 72.6495 -12.1331
-381.988 91.6407 -46.0974
-361.541 -0.956102 8.266
-396.008 121.594 -62.7323
-391.897 144.509 -51.4078
-311.111 -10.6583 235.185
-315.561 -56.2647 250.222
-297.752 96.4463 135.235
-303.301 38.6857 202.506
-342.04 -58.6289 134.794
-323.689 -6.04793 168.342
-341.945 21.4835 65.3291
-374.571 144.369 -15.1219
-363.93 112.533 3.11468
-346.611 133.706 25.6643
179.885 270.677 155.184
209.12 257.965 95.331
139.825 251.743 225.226
161.079 266.872 191.111
228.642 194.294 127.315
191.75 241.99 172.998
198.316 187.752 199.302
29.2396 102.147 414.811
54.8978 143.493 366.9
145.472 96.4646 354.987
98.7301 122.752 361.216
110.953 67.0175 397.709
85.9474 188.479 324.488
108.708 216.747 283.679
275.152 -6.12295 276.303
255.398 18.0183 302.593
256.265 -22.435 321.782
234.769 101.875 253.05
248.977 59.8524 280.246
261.141 72.8056 231.42
202.234 22.4123 364.712
228.498 43.0294 325.101
198.678 63.6939 341.368
149.368 195.291 268.315
173.469 120.939 311.443
192.446 150.182 257.333
-41.6007 67.7495 446.126
-6.06663 78.5508 440.165
-118.863 33.0285 428.422
-77.2351 50.8231 444.049
-5.65454 7.13294 474.852
-43.2161 29.1542 465.94
-42.8502 -8.00992 475.97
-279.94 -75.8899 325.903
-252.603 -47.4766 355.997
-182.936 -125.711 410.154
-222.91 -78.6163 386.428
-213.221 -165.573 383.294
-220.051 -20.4355 383.167
-183.103 2.894 402.14
-2.27122 -254.862 472.716
-59.8377 -235.589 473.438
-54.3028 -280.307 470.712
-43.7791 -81.7514 473.052
-54.1263 -164.28 472.479
-0.890528 -108.109 479.56
-137.209 -239.542 449.313
-99.8884 -216.552 464.373
-126.663 -191.254 444.548
-130.944 -16.2462 435.218
-133.22 -88.5168 440.529
-82.4897 -44.2391 464.987
-326.571 -101.42 228.679
-307.114 -96.2625 277.992
-346.98 -100.826 121.227
-342.575 -105.088 179.706
-303.601 -195.116 244.461
-330.954 -144.019 208.005
-324.413 -192.941 182.929
-337.174 -56.178 -90.5292
-352.682 -61.2273 -50.0118
-325.604 -174.552 10.1666
-344.341 -119.85 -26.4245
-313.432 -166.693 -44.2813
-358.897 -71.5464 -6.04191
-358.134 -84.857 48.7504
-239.587 -334.632 145.625
-272.293 -306.174 111.552
-241.162 -325.787 88.6519
-314.834 -244 154.263
-298.32 -276.928 133.89
-283.187 -278.576 195.91
-286 -259.577 20.6557
-297.817 -271.084 82.3883
-313.415 -235.768 53.4975
-346.774 -148.685 95.2771
-337.417 -194.233 78.0201
-339.966 -200.268 126.951
-295.874 19.5843 -167.676
-311.605 -23.9187 -136.801
-223.788 80.411 -215.809
-272.088 54.5939 -195.081
-234.36 -108.093 -172.098
-252.307 -31.1959 -182.909
-202.619 -73.9345 -202.482
-2.67065 149.401 -303.674
-51.3965 134.081 -304.905
-39.4026 73.9721 -289.93
-44.7204 105.765 -302.045
-4.0538 91.0133 -299.946
-102.453 121.583 -291.745
-146.141 114.21 -267.985
-116.517 -182.21 -161.31
-116.244 -125.695 -187.887
2.60433 -139.646 -157.771
-159.147 -101.885 -211.659
-147.823 -112.92 -201.785
-165.657 -158.153 -187.314
-2.31869 26.7853 -262.049
-103.326 -28.7296 -233.959
-50.2674 17.948 -260.866
-145.384 64.1715 -241.899
-88.5452 24.6921 -258.92
[...]
POINT_DATA 642
SCALARS Mean_Curvature double 1
LOOKUP_TABLE default
0.00769097
0.00549356
0.00761614
0.00631108
0.0115726
0.00464953
0.023754
0.00829658
0.00232512
0.00735773
0.00431138
0.00720837
-0.00253082
0.00407909
0.0034038
0.00512452
-0.00375734
0.00403753
0.00367053
0.000362063
0.0212227
0.00806907
0.00467301
0.000134142
0.00272103
0.00676555
0.00542608
0.00386783
0.0147813
0.00727119
0.0229988
0.0107248
0.00385542
0.00223535
0.00791154
0.00661693
-0.00346155
0.0127738
0.0258413
0.00404401
0.0061408
0.0106327
0.00943751
0.00704508
0.0107089
0.00733574
0.00567052
0.00538942
0.0081613
0.00500217
0.00662029
0.00997674
0.00362918
0.00813657
0.000239873
0.00539272
0.0124979
0.010685
0.00385069
-0.0016573
-0.00179141
0.00405252
0.00752545
0.0073197
0.00752194
0.0112555
0.00419574
0.00602104
0.00238702
0.0148536
0.0102438
0.0057516
0.0100649
0.00258912
0.00403382
-0.00133422
0.00147567
0.00546666
0.00594325
0.00446752
0.0047367
0.00704986
0.00607712
0.00709636
0.00979468
0.00936317
0.00369457
0.00640217
0.000696875
0.0072975
0.0151184
0.0044917
0.00501677
0.00686059
0.00098937
0.00641909
0.00885719
0.00480514
0.00137103
0.00486583
0.0274063
0.00112472
-0.00745741
0.0256433
-0.00782949
-0.000255716
0.00619783
0.00483418
0.0119021
0.00830224
0.010574
0.0177028
0.00562277
0.00459463
0.00264951
0.00550612
0.00786064
0.00591575
0.00702714
0.00893241
0.0160744
0.00838822
0.0153829
0.0089954
0.0126655
0.0119179
0.00789704
0.00401543
-0.0041094
0.0147655
0.0205493
-0.00312123
-0.00327797
-0.0221059
-0.00221962
0.00667715
0.00517481
0.00774824
0.0185597
0.00732395
0.00718245
0.00683435
0.00937406
0.00430139
0.00844945
0.00403091
0.00220089
0.0069999
0.00840885
0.00784623
0.00564819
0.00780255
0.00774667
0.0288509
0.0053281
0.00697401
-0.00118483
-0.0188975
3.49543e-05
-0.00298149
0.000508734
0.0092295
0.00661967
0.00974321
0.0103974
0.00178953
0.0106748
0.00312342
0.0105416
0.0102773
0.0061119
0.00596982
0.00652126
0.00625314
0.00611397
0.00713244
0.00706807
0.00301225
0.00607883
0.00348569
0.00114348
0.00230144
0.00846137
0.00585118
0.00764182
0.00768336
0.00306372
-0.000846819
0.00247153
0.000177795
0.00129828
0.00303329
0.0116037
0.00583469
0.00945773
0.0129562
0.0111905
0.0121592
0.00101944
0.00322205
0.00373265
0.00231312
0.0063549
0.00657287
0.00441861
0.00264209
0.00283737
0.0107631
0.00929558
0.00385239
0.0118199
0.0117031
0.0100778
0.0114624
0.0106417
0.000497207
0.00337027
0.00338247
0.00613458
0.00154808
0.00518255
0.0105681
0.00400073
0.00283874
0.00723147
0.00120147
0.00780909
0.00485735
0.00351609
-0.000539501
0.00987388
0.00885328
0.00776109
0.0070033
0.00864533
0.00401367
0.00558858
0.00745525
0.00637844
0.00635736
0.00392809
0.000709177
0.00593311
0.00605758
0.008042
-0.00690417
-0.0109094
0.0231373
0.014637
0.0248143
0.0184398
0.00534498
0.00783833
0.000586611
0.00539312
0.0143151
0.0067958
0.00563599
0.00533767
0.00730153
0.00793659
0.00733778
0.0191909
0.0236257
0.00892915
0.016318
0.0128437
0.0106153
0.00853108
0.00891974
0.000213781
0.00810691
0.00784838
0.000730339
-0.00405576
0.00413128
0.0146289
-0.000574652
0.0106167
0.00292091
0.033692
0.0221744
0.00473307
0.00537384
0.00165481
0.00340122
0.00172944
0.000690592
-0.00222188
0.016432
0.00521846
0.00673381
0.00902206
0.00772642
0.00541429
0.0103533
-0.00295878
0.0090953
-0.00188062
0.00740077
0.00201619
0.00293674
-0.000277138
0.00241485
0.00685031
0.00515902
0.00571219
0.00667797
0.0076923
0.0045382
0.00744971
0.00451714
0.00647003
0.00696368
0.00593218
0.00328
0.00218241
0.00154908
0.0109851
0.00825082
0.00527703
0.0087975
0.0105876
0.0116694
0.0113641
0.00776506
0.00577292
0.00136074
0.00597909
-0.00096548
0.00744511
0.00572528
0.00132225
0.005439
0.00844321
0.00104025
0.00261738
0.00634538
0.0107418
0.00759402
-0.00259049
0.00223485
0.0013831
0.0063716
0.00553811
0.00637805
0.00171502
0.0103205
0.00311717
0.00631191
0.00210196
0.00601863
0.00645151
0.000830807
0.00927872
0.00267139
0.00676154
0.00749042
0.00634683
0.00871661
0.00620973
0.0065567
0.00836295
0.00436996
0.00517012
0.00727923
0.0055731
0.00439425
0.00723233
0.0120677
0.00285215
0.00320095
0.00218724
0.00563888
0.00267575
0.00218616
0.00404586
0.00855363
0.0160065
0.00413179
0.0127727
0.00438733
0.0252754
0.0120171
0.00122625
-0.000544262
-0.00673558
0.0203442
-0.00432798
0.0324528
0.00231431
-0.00925318
0.0146504
-0.00594894
0.00405543
0.0102832
0.00714252
0.00563274
0.00405592
0.00616811
0.0180522
0.00540551
-0.00387278
-0.00289034
0.00979229
0.0198237
0.0211294
0.0116309
0.0136358
0.00349137
0.00683644
0.0140017
0.00666053
0.0125692
0.0133141
0.0108182
0.0241748
0.010832
0.00853584
0.0111177
0.00810161
0.00900028
0.00491764
0.00774943
0.00430718
0.00415444
0.00635223
0.00530405
0.0125799
0.00481359
0.00931329
0.00534072
0.00462586
0.00359428
0.00625448
0.00205767
-0.000265242
0.00350686
0.00384627
0.00431646
0.00985071
0.00767702
0.00965741
0.00776133
0.00776198
0.00602748
0.00920359
0.0129504
0.00857445
0.00491602
0.00484748
0.00536779
0.00660862
0.00761428
0.0158179
0.00456066
0.00267228
0.00891471
0.00366535
0.011626
0.00998622
0.00810699
0.00957104
0.00659509
0.0103049
0.00629505
0.0100638
0.00708186
0.00221019
-0.000582516
0.0109387
0.00145056
0.0110282
0.00710178
0.0147851
0.01889
0.0220644
0.00189277
0.0248145
0.00218972
-0.00234887
-0.000460073
0.028477
0.0183972
-0.000637546
0.0080098
0.0225051
-0.00219202
0.00282318
0.0283124
-0.00473576
-0.00174729
0.00591681
-0.020403
0.00746713
-0.00364565
0.0225988
-0.000628908
-0.00380725
0.0219345
-0.00230614
-0.00863977
0.00674557
0.00627823
0.00363315
0.00595225
0.0144924
0.0052215
0.00504203
0.00680366
0.00787334
0.00143524
0.00305268
0.00968978
0.0213499
0.0202896
0.0114702
0.0304077
0.00689157
0.00645431
0.00510171
0.00611903
0.00421104
0.00410503
0.00106298
0.00429869
0.0074032
0.00593515
0.00629014
0.00719598
0.00771731
0.00434344
0.00792312
0.00836445
0.00646935
0.00226173
0.00688087
0.0080068
0.00731727
0.00533193
0.0102059
-0.00115016
0.00641936
0.00254089
0.00298558
0.00975918
0.00165125
0.00726011
-0.000269576
0.00798199
-0.00259511
0.0101486
0.00850731
-0.00282782
0.00476252
0.00325347
0.00706199
0.00795054
0.00608858
0.00811767
0.00616294
0.00303029
0.0104095
0.0111759
0.0116454
0.00701037
0.00235297
0.00291879
0.00440106
-0.000177379
0.00491425
0.00817972
0.00578693
0.00567279
0.0045173
0.00715525
0.0110598
0.0119807
0.00723042
0.00735806
0.00328499
0.00441644
0.00388963
0.00541432
0.00781121
0.0066259
0.00523656
0.00514182
0.00109513
0.0341847
-0.00539521
0.0170467
0.0181787
0.00217738
0.00728743
0.00529228
0.00682887
0.0204608
0.00588835
0.00527197
0.00433561
0.00444828
0.00619436
0.0084518
0.00654495
0.00501616
0.00272152
0.00366349
0.00245372
0.00519723
0.00556594
-0.00158149
-0.00324246
0.0294158
0.0164995
0.0131254
0.0162292
0.00851068
0.0316765
0.0131054
0.00302947
0.0059462
0.000717865
-0.00558568
0.00429698
0.00226926
-0.000379124
0.00255126
0.00123918
0.0136733
0.016154
0.0324812
0.012211
-0.00119626
0.0039426
-0.00339776
0.00204307
0.00847925
0.00752096
0.00434717
0.0116784
0.0054321
SCALARS CoVolArea double 1
LOOKUP_TABLE default
2928.51
2960.32
2296.42
2294.43
2020.76
2021.93
3654.71
2353.05
2570.67
1805.53
2684.95
1753.74
6020
2807.59
2316.73
2244.62
3495.41
3842.17
4036.6
3094.73
1924.91
3943.98
2773.84
5785.27
3134.92
2461.27
3038.54
3360.61
1922.44
2543.59
1598.91
2413.05
3088.27
3287.7
2854.57
3059.45
4565.6
988.675
897.938
2695.7
2897.31
3044.91
2930.78
2622.86
1596.82
2045.87
3088.84
2395.66
2516.25
3500.01
2367.36
2439.66
2202.41
2456.52
3846.4
2043.62
2151.24
1559.65
3209.92
4207.47
4000.12
3306.44
2796.83
3160.92
2725.62
2654.32
2384.78
2793.02
4357.55
1543.23
2694.43
2184.45
2365.21
3141.81
1186.63
5346.15
2921.62
2743.05
3000.92
2562.74
3333.21
2091.32
2716.03
1860.04
2247.37
1541.34
3190.91
3456.8
3907.97
3880.09
2028.22
2779.82
2908.23
2697.68
3259.75
2834.02
2255.48
2559.02
5121.61
3338.37
1430.8
2824.95
1459.77
1937.93
11042.5
4729.15
2757.72
1875.13
2287.3
1934.69
2604.96
1553.53
2638.03
3140.63
2813.97
3031.73
2954.93
2556.4
2947.4
2778.72
1865.68
2118.13
2267.14
2896.99
2698.01
2262.03
2087.06
2927.83
4901.01
2167.85
1991.57
5611.25
2784.68
7605.81
3096.85
2341.92
2445.17
1143.94
1698.35
2415.11
2556.56
3096.12
2200.7
2882.46
2704.05
3085.28
3152.74
3863.01
2853.8
2555.63
3192.79
3013.41
2997.69
1486.5
2569.19
2710.72
5160.93
2156.75
3001.77
5520.73
1419.53
2135.63
3304.54
1937.29
2031.09
3583.05
1985.26
3858.43
1615.63
1630.97
2382.81
2069.98
2102
2146.89
2773.54
2008.69
2062.84
4073.45
2351.05
3913.21
2884.64
2784.08
2106.14
2707.7
2588.64
2282.64
2722.01
3234.04
3538.06
4235.23
4252.5
3899.69
1867.28
2966.82
2160.57
1510.32
2397.13
1855.91
3438
2838.15
2816.62
2816.1
2745.16
2248.46
2854.21
3161.98
3083.3
1931.22
2271.99
3206.3
1786.55
2165.28
1572.76
1524.68
1933.97
3752.47
3363.24
3636
3830.74
4291.29
3178.09
2490.97
4265.18
3917.4
3715.42
3923.4
3418.29
4066.27
3942.01
4274.48
2300.38
3089.55
2731.68
2806.93
2670.64
3281.3
2866.25
3032.08
3090.28
2815.81
3401.82
3891.52
3840.82
3744.15
2586.53
4141.83
4289.88
2490.49
1306.21
1234.17
2274.44
2904.77
2910.53
4667.49
3818.32
2970.81
3322.17
4250.75
2389.05
1934.68
2750.18
2963.44
2134.2
1768.88
2130.86
1742.99
3000.78
4094.78
3914.22
3311.4
3898.4
1591.46
2387.35
3354.77
5205.04
3103.07
1909.67
3049.11
1789.8
3390.52
897.646
1289.63
2887.57
2297.02
5955.05
4250.16
3981
5146.84
5512.83
1586.52
3097.99
3464.6
1974.54
2897.59
2345.28
1574.18
4744.19
2540.83
4299.57
2160.49
2834.8
3356.85
3258.61
2899.7
2588.73
2698.12
2074
1878.14
1863.62
3576.91
1954.59
3293.02
1941.94
1901.43
2602.73
3730.6
3825.9
3985.79
1607.81
1631.19
2626.13
1795.56
1621.67
1527
2226.34
2509.12
2430.16
4565.79
3115.5
3411.77
2225.23
2706.25
2745.8
2828.69
2428.09
3388.95
3679.98
3539.56
1822.16
2379.96
3828.41
3616.62
4947.69
3697.11
2331.38
2477.8
3266.88
2416.65
3131.66
2658.34
3142.44
3294.26
3022.23
3531.59
2846.81
2846.7
3303.65
3496.81
2717.43
2325.24
2412.43
2751.09
2326.66
2923.56
2532.17
2253.06
2900.38
3208.26
3120.79
2747.87
3188.64
3372.14
3840.61
3263.43
3105.51
3762.89
3666.38
2573.3
2197.45
2320.75
1372.66
1347.13
1684.45
2641.7
4058.55
6828.74
9237.43
2121
1697.69
1167.81
4055.44
4901.08
2131.49
5545.9
4089.91
4524.16
2890.33
2849.97
3996.73
3550.72
2613.42
3844.63
4249.25
3295.65
2351.77
2117.11
1273.51
1262.62
2435.69
3273.69
2391.65
1787.93
2125.05
2748.43
1846.99
1894.75
1613.39
2173.72
2641.84
3751.92
3133.63
3905.2
2606.68
2953.62
3066.71
3308.01
2908.49
2640.15
2139.8
2645.81
2752.3
2296.87
2957.69
2393.99
3004.6
3171.89
3632.33
2813.63
2863.38
3192.42
2645.33
2761.99
2396.19
3036.4
2863.08
3016.61
1856.4
2154.18
2344.39
3621.05
3234.15
3419.57
3095.83
2867.3
2373.53
2323.23
2746.38
2495.05
2980.72
2559.83
2758.25
3008.25
2876.72
3021.38
2887.97
3015.12
2843.36
3070.96
3386.96
2965.82
2393.01
2953.89
2383.39
2311.52
2488.44
2307.93
2270.53
2270.05
1983.12
2709
7800.29
1953.45
1292.98
1239.36
1619.33
2460.26
1805.96
2005.51
1427.47
1219.95
2475.54
8284.98
3758.22
6356.81
3906.14
3109.53
4203.23
1053.14
1328.95
4366.38
3432.6
11093.9
7955.16
7676.38
2714.48
2531.79
1807.78
2223.29
2384.57
2371.78
2411.47
3587.86
1363.54
2114.11
1107.84
1489.5
880.485
1252.48
3060.75
2794.02
3085.32
2624.79
2550.32
2607.55
3023.79
2708.84
2610.64
2498.02
2626.8
2686.36
2345.21
2832
2199.82
2187.95
2494.77
3004.21
2791.42
3092.69
2582.18
2689.21
2275.22
3138.13
2140.62
2457.94
2775.8
2225.42
3510.16
2453.31
3529.29
3104.03
3811.07
2901.41
2614.2
3850.37
2317.47
3315.08
3057.19
2045.34
2470.46
1865.95
2733.26
4137
1664.16
2254.6
1570.37
1990.92
2790.16
4666.22
3617.71
3978.76
3211.1
2994.64
2779.34
3075.13
3433.66
2805.16
2458.41
2379.19
3001.03
3225.27
3131.89
3337.43
2929.84
2920.09
2843.51
3553.75
3415.52
3707.78
1691.7
1105.78
966.767
918.354
1997.41
2829.32
2649.79
2678.94
2363.24
1732.66
3108.78
2790.37
2845.2
2697.75
2816.38
2483.05
2904.99
2775.32
2899.32
3865.13
3579.15
2925.38
3422.56
5773.75
2203.29
3950.48
1255.65
2483.45
2121.61
2358.2
1517.58
1262.22
2552.35
5188.02
4882.16
6005.83
3017.03
4586.87
4994.23
4168.55
5534.45
1740.42
1177.5
910.037
1647.96
2641.77
2878.7
4903.08
3115.64
1964.68
1473.9
3271.42
1736.73
3616.06
SCALARS SignedDistance double 1
LOOKUP_TABLE default
109.326
121.91
108.955
108.678
97.4821
121.7
220.839
86.649
106.885
118.72
104.224
112.421
124.333
116.399
119.469
120.668
109.727
103.081
99.5302
124.937
102.584
118.058
118.417
126.906
108.72
106.992
106.844
105.092
140.904
123.878
109.36
128.909
110.738
112.239
88.4432
85.7312
159.787
139.255
137.442
116.439
110.634
120.773
121.551
122.248
106.167
111.825
117.803
118.041
117.147
118.816
116.701
112.233
106.449
116.607
119.263
106.442
111.201
110.76
107.362
113.733
121.04
106.373
88.6496
96.0729
90.0666
103
110.219
91.2565
100.098
100.009
82.8137
98.881
122.366
115.109
118.071
126.88
117.44
128.123
134.041
120.163
121.234
122.152
120.651
115.869
108.808
109.937
107.64
108.853
102.819
104.017
102.957
112.624
108.905
104.616
113.625
99.9287
103.242
105.51
115.277
107.138
117.951
117.663
139.679
142.569
185.009
107.001
93.125
115.221
101.699
103.525
85.7222
104.905
105.856
102.381
103.056
111.972
109.6
115.463
82.2326
97.4776
106.448
119.441
138.061
79.0366
87.7933
140.856
124.409
103.617
138.89
131.231
137.579
147.045
138.682
208.197
146.981
108.745
107.889
135.817
130.499
107.203
107.491
109.04
108.987
120.206
115.02
121.032
122.845
106.237
111.63
113.422
97.0025
91.0429
102.412
137.507
108.498
105.174
114.698
142.293
114.987
133.33
120.463
126.454
114.679
108.861
103.35
128.897
117.551
129.812
111.287
112.585
118.661
112.247
114.889
115.165
115.749
114.649
112.901
120.94
117.5
121.748
125.389
125.057
117.87
115.505
115.67
114.492
117.911
123.555
121.506
122.712
121.952
119.2
101.689
102.636
114.398
107.369
111.106
107.021
109.34
125.529
117.787
121.151
116.386
117.047
116.448
119.978
107.462
104.649
109.453
110.457
105.1
109.457
114.344
108.042
112.802
117.776
120.948
112.811
102.772
114.378
113.025
102.592
104.365
101.928
97.6827
125.145
106.122
100.19
105.027
111.78
101.84
111.548
86.2116
88.8967
86.3874
95.9599
92.899
92.2291
94.563
94.0767
97.0381
108.86
99.2557
100.123
123.059
120.829
115.469
126.366
106.142
110.908
99.1556
89.0516
86.3012
105.123
89.7543
106.806
89.0926
96.1962
97.5371
94.3471
100.45
77.9106
90.611
99.7391
104.88
97.8328
101.578
111.581
99.1391
85.2849
127.851
109.648
114.554
130.552
129.886
107.379
111.135
120.209
116.334
119.338
117.653
113.831
118.014
116.185
121.446
120.194
119.611
122.084
125.697
121.698
126.096
131.041
116.001
130.022
122.704
117.956
131.19
124.198
130.44
120.15
125.477
122.782
124.746
120.689
117.837
118.7
120.371
118.739
116.694
124.673
120.481
125.392
116.378
117.973
118.891
122.599
124.464
126.59
112.003
114.563
115.197
112.042
106.344
107.405
104.396
110.22
110.423
109.573
108.252
111.504
110.009
112.806
100.199
101.382
97.9947
111.172
103.487
110.53
107.847
108.531
109.248
113.496
112.941
110.277
114.509
111.284
115.564
116.811
107.792
108.427
111.055
101.53
105.592
111.844
107.208
109.866
111.028
115.974
101.891
103.208
106.57
104.369
101.816
102.874
105.27
103.639
105.274
115.316
109.996
108.506
106.916
105.269
124.22
109.663
109.452
107.461
112.393
95.433
109.263
128.919
119.009
121.855
113.681
115.721
155.32
150.419
202.094
136.432
138.852
140.496
149.298
151.816
160.499
127.413
156.279
130.128
88.6278
90.0412
106.096
91.9116
115.594
94.3551
114.865
129.531
122.247
104.7
113.223
110.664
118.127
122.034
104.035
100.489
104.436
99.5106
96.6632
107.227
109.314
91.136
85.3275
107.414
85.445
91.9063
105.835
103.813
106.538
107.64
102.968
107.983
104.562
100.703
100.478
115.316
113.883
119.901
109.249
114.03
113.45
112.353
112.889
110.598
86.603
86.9314
97.3524
91.4137
87.029
84.325
111.199
101.445
108.697
104.824
104.317
101.232
117.724
122.213
105.684
109.785
140.902
127.262
134.456
84.813
77.6773
90.3335
76.8267
81.6196
78.7655
90.1323
128.023
122.433
106.266
138.75
132.448
146.126
99.4385
112.204
107.395
116.872
119.88
125.089
134.931
115.996
149.1
138.067
137.931
138.771
140.178
122.194
137.906
142.518
141.001
140.518
139.706
159.029
161.028
204.968
180.263
138.73
154.84
137.376
139.83
166.726
145.282
205.496
176.814
164.037
110.65
108.983
125.918
114.144
109.592
108.088
106.956
141.986
138.604
120.98
134.438
132.414
135.564
136.818
104.999
107.72
107.133
108.972
109.793
112.546
113.505
111.543
109.191
114.517
110.574
107.85
106.625
111.62
107.419
106.131
109.302
111.066
109.069
115.481
114.108
119.72
110.73
118.524
121.601
121.906
116.747
115.427
126.168
121.795
124.156
119.082
122.092
117.848
105.947
111.134
111.466
105.089
115.017
113.736
115.233
113.597
111.545
111.622
114.293
107.739
110.334
115.783
118.298
112.643
115.846
115.225
102.014
94.1863
97.5207
101.257
103.024
86.1446
105.85
94.4706
83.5861
86.2867
107.671
106.202
109.829
113.831
104.198
94.7105
100.67
99.7603
144.805
139.691
138.051
139.569
132.494
111.022
104.58
106.616
117.866
132.826
105.356
108.424
107.382
106.694
105.757
119.315
106.278
111.113
108.349
112.101
112.511
108.374
121.468
141.123
165.996
153.287
137.751
131.83
110.476
119.088
114.003
119.245
127.664
120.231
152.585
122.673
123.844
127.947
127.045
126.391
127.399
115.484
117.49
120.539
118.845
127.041
134.014
133.411
133.541
120.035
115.016
128.256
124.946
132.598
