# vtk DataFile Version 4.2
vtk output
ASCII
DATASET POLYDATA
POINTS 642 double
-152.185 240.507 92.5003
131.976 224.264 76.8161
-181.374 -292.097 129.833
162.797 -290.744 132.703
-5.57754 -290.98 406.72
-8.27545 59.5867 352.943
1.68408 -146.296 -86.3857
-3.48021 173.179 -228.897
267.426 37.8363 -81.9499
205.56 -56.554 261.717
-286.677 42.6282 -84.04
-231.76 -62.2134 262.813
-183.737 114.331 151.244
-134.011 11.77 332.766
-95.4488 207.474 184.084
75.9613 208.216 182.504
1.38176 269.129 67.43
96.0781 225.926 -106.065
-98.1758 234.892 -109.945
-176.16 110.425 -145.006
-320.795 155.833 -77.2719
-282.936 -44.3061 44.1218
127.122 8.47632 323.423
175.928 90.289 152.455
-130.532 -219.95 362.642
-4.62288 -41.7165 409.327
-241.202 -190.762 8.54967
-236.306 -216.385 200.628
-3.82396 83.4543 -216.838
-172.687 -117.151 -133.821
293.505 150.529 -79.3592
186.436 94.8947 -173.972
215.461 -210.526 194.338
112.206 -212.853 355.046
82.3078 -352.738 319.259
-91.6652 -357.427 323.326
-0.838078 -308.48 237.602
-192.43 -241.011 -27.3504
176.952 -241.602 -26.8923
157.992 -118.762 -123.744
226.182 -185.003 2.27345
269.799 -38.2753 33.5002
-168.905 210.35 104.802
-136.028 205.652 166.674
-126.355 251.99 143.978
-192.818 -16.3512 306.161
-182.435 44.3579 267.209
-221.122 3.99559 235.162
-52.136 155.768 270.708
-95.4871 128.262 271.561
-47.296 40.993 367.735
-84.6214 261.024 139.497
-85.4515 271.149 86.3922
36.8542 155.911 269.729
-1.87216 198.522 210.707
68.2374 272.448 81.0863
68.7214 261.173 140.648
104.881 246.404 142.137
-58.4191 268.654 -10.5418
-165.574 216.803 -29.3765
153.057 203.842 -24.3439
48.4947 269.349 -4.00811
-55.5035 218.065 -183.613
-5.02557 253.854 -119.559
44.0455 215.792 -182.597
-270.456 194.71 -77.8538
-279.497 183.815 -72.3538
-84.7517 147.096 -227.926
-163.718 183.142 -147.136
-330.208 133.264 -82.2033
-298.036 146.031 -124.076
-276.568 101.051 -128.654
-293.282 142.612 -43.3962
-291.451 32.5557 -37.7443
-322.594 131.904 -82.2025
-247.038 60.6226 59.4577
-256.365 -80.5091 181.522
109.188 194.484 164.005
144.549 195.981 80.4719
32.4206 40.9161 358.6
84.6937 122.108 267.583
199.348 7.72536 234.488
170.352 39.9954 261.332
177.184 -21.5529 300.473
-47.8368 -3.28187 399.995
-9.40637 10.8221 398.601
-198.978 -109.54 309.152
-153.325 -53.4093 350.331
-2.91472 -193.568 405.756
-66.587 -139.679 402.735
-82.8757 -254.815 403.717
-270.077 -139.721 145.023
-245.121 -135.606 232.261
-274.111 -91.8671 -40.692
-275.806 -106.261 37.2886
-218.396 -268.062 163.811
-262.111 -211.386 110.323
-222.636 -245.118 74.4944
-187.406 13.9018 -141.715
-234.037 -51.0591 -101.842
-5.70946 143.836 -243.709
-67.6797 139.058 -224.336
-196.439 -136.004 -115.45
-117.008 -30.6865 -178.031
14.7298 22.4633 -126.731
153.586 174.428 -135.976
77.6778 144.679 -224.383
255.118 178.11 -67.7857
246.835 190.944 -81.2276
259.769 97.6826 -122.521
276.261 141.214 -118.782
306.173 116.203 -82.8349
198.32 -258.925 164.89
149.209 -288.274 270.039
112.658 -325.959 252.69
182.335 -98.9833 305.101
174.037 -210.29 294.627
224.704 -136.418 222.828
36.1146 -330.958 384.821
103.547 -282.811 366.119
66.487 -255.814 400.871
47.6485 -356.965 302.716
111.65 -313.062 172.435
-47.5059 -335.951 391.098
-6.38313 -381.912 342.609
-120.799 -307.033 181.023
-61.6987 -359.724 312.784
-124.21 -331.167 258.279
167.971 -273.971 72.2955
165.065 -268.601 39.4912
-179.342 -272.38 45.107
-165.241 -252.486 75.9475
155.744 -185.781 -58.0484
5.30646 -206.418 -78.1098
-154.533 -181.931 -54.7014
182.5 -232.558 -22.6312
207.507 -238.072 67.3358
163.213 -136.653 -117.519
169.376 -187.279 -77.8777
261.821 -88.7518 -38.1138
206.372 -154.547 -69.6688
230.784 -50.6063 -95.364
238.347 -209.312 107.568
277.23 22.9839 -26.9659
266.198 -95.6955 17.6726
239.919 -140.302 152.834
232.46 -79.6804 174.74
53.3103 -139.023 400.726
142.612 -55.5134 345.227
32.8217 -4.9153 391.1
-167.908 -293.815 278.458
-121.829 -285.244 372.37
-195.254 -213.648 306.402
-185.586 -187.561 -84.967
-193.505 -238.939 -25.8695
-216.895 -156.293 -74.1534
183.582 23.2766 -131.677
105.41 -26.0456 -177.09
61.3213 143.022 -228.789
227.37 41.9963 52.182
300.057 106.583 -83.2031
265.379 139.859 -43.8699
-164.972 225.221 100.469
-149.236 236.414 135.792
-136.662 253.703 126.014
-145.933 174.972 160.629
-152.872 218.765 142.837
-169.49 187.861 107.491
-115.929 243.802 159.287
-137.081 232.723 154.902
-121.403 213.354 176.607
-213.135 -38.4453 284.942
-209.785 -5.96695 272.201
-228.959 -28.1135 250.771
-168.25 27.4326 300.489
-189.056 13.7269 290.236
-171.136 -1.4182 318.862
-211.158 39.9109 207.684
-202.688 26.1715 254.938
-184.456 70.4686 223.01
-24.1173 105.453 298.36
-41.9485 88.783 305.917
-29.8982 49.5249 364.752
-88.7413 174.363 239.544
-72.7332 149.368 272.501
-70.823 178.676 244.996
-82.6012 26.8739 353.955
-77.265 75.1833 305.413
-117.914 53.7614 306.921
-150.191 122.014 211.531
-136.096 80.6196 266.004
-115.258 165.105 222.718
-115.039 265.883 125.945
-120.213 264.637 96.8994
-97.8112 248.367 157.103
-105.939 259.398 143.249
-67.1128 275.143 72.4535
-91.4519 268.942 119.399
-55.5759 266.06 110.707
12.324 107.258 298.163
-4.50847 154.714 271.315
50.6879 201.795 198.847
23.1425 176.122 250.263
54.5312 177.019 240.649
-34.1333 175.21 251.194
-63.7696 200.947 205.001
96.3152 259.271 88.3432
93.5225 262.21 124.058
115.062 245.938 123.849
49.7411 266.684 111.372
73.1643 268.706 117.663
57.2446 276.235 72.5986
93.7902 240.739 157.537
84.6 257.802 144.114
78.4126 248.35 156.626
-46.9225 238.02 160.455
42.4978 238.771 158.494
1.45899 255.986 137.723
-101.875 270.661 43.5236
-149.018 227.053 27.6233
-43.7458 272.827 35.6235
-74.5278 280.909 41.0659
-128.618 233.264 -62.5164
-88.3804 265.727 -9.96427
-73.7589 264.211 -64.6895
137.872 213.15 18.1262
88.1511 268.245 39.5676
63.4838 258.474 -60.2481
80.1382 262.556 -3.35931
130.282 216.621 -68.7705
63.2353 280.447 42.8986
37.4245 276.54 36.4694
-29.0079 200.133 -210.458
-4.03202 218.883 -188.172
20.2627 199.595 -210.517
-49.999 249.435 -117.181
-29.7719 237.407 -154.379
-78.3698 231.185 -152.359
66.6901 226.393 -149.111
19.503 235.822 -153.809
38.5179 247.228 -117.158
-3.30576 268.65 -13.3497
18.9735 266.3 -71.5181
-30.6793 266.676 -72.257
-240.774 200.849 -61.5823
-197.112 195.055 -25.5288
-198.827 187.173 -63.3198
-239.586 201.051 -60.5963
-303.464 173.642 -80.4927
-275.456 194.913 -79.0338
-297.264 181.312 -81.9837
-43.505 159.805 -231.479
-70.5736 187.366 -211.01
-178.635 149.819 -156.557
-110.718 166.633 -202.887
-119.502 138.513 -215.452
-96.3328 205.675 -179.724
-133.674 208.775 -142.436
-316.145 103.471 -86.0829
-307.916 119.942 -106.614
-289.052 78.0781 -109.253
-323.487 157.132 -92.8416
-319.925 137.224 -101.853
-333.013 140.895 -82.7917
-260.982 111.431 -134.895
-288.519 129.089 -126.075
-269.132 132.228 -133.736
-236.617 177.236 -116.038
-256.725 162.457 -128.754
-285.435 178.643 -104.161
-211.35 164.145 9.95859
-312.142 152.781 -66.2178
-294.051 160.069 -53.6699
-222.999 147.035 11.7692
-231.618 117.089 25.9138
-294.39 39.0028 -61.0575
-320.805 109.089 -75.4953
-303.285 64.118 -48.3288
-318.899 100.456 -73.5712
-293.048 3.01643 4.99369
-331.922 136.428 -82.692
-333.057 140.833 -83.1582
-238.859 -30.0241 216.399
-243.002 -67.5669 227.753
-231.508 63.5554 109.737
-232.262 12.0837 183.544
-266.72 -71.8088 119.53
-246.769 -24.9747 151.626
-268.773 4.63307 36.0839
-308.536 135.294 -57.5216
-292.947 109.16 -38.3488
-280.908 111.227 -25.1578
124.089 230.552 132.337
139.437 210.299 75.7667
95.2903 208.1 173.785
113.307 228.644 150.089
156.825 159.812 95.2086
126.337 212.68 138.75
127.402 151.362 166.824
11.7927 51.1536 360.034
27.9284 93.1181 302.37
109.212 52.7668 299.971
66.7341 76.3119 297.74
74.9704 26.0161 340.163
58.1063 146.037 268.693
73.2815 169.739 235.942
203.637 -22.938 249.923
191.164 -5.9929 267.573
192.379 -36.3604 283.975
173.455 57.541 224.86
187.133 25.3424 249.988
191.002 36.1115 210.655
157.205 -7.14989 312.455
174.528 11.3127 282.436
154.948 24.1854 292.618
99.7122 153.722 223.877
125.063 74.5961 263.562
134.104 104.316 218.031
-30.2789 26.1864 387.896
-9.68963 32.3655 382.549
-81.336 5.5695 369.586
-48.9428 16.457 388.287
-9.4634 -9.15589 407.777
-31.5012 2.41956 402.999
-30.4301 -15.8903 408.828
-221.799 -77.6002 284.738
-199.163 -54.4363 308.289
-143.109 -123.136 350.555
-177.659 -77.4362 332.645
-164.476 -164.006 328.116
-175.349 -34.4276 330.097
-146.803 -19.2275 342.643
-2.7712 -254.06 406.874
-53.0875 -236.626 407.52
-48.2136 -273.32 406.887
-31.5263 -81.6409 397.609
-46.0492 -164.659 404.958
-1.82128 -109.112 409.106
-99.6388 -248.498 391.386
-73.7067 -224.559 399.756
-87.4848 -197.524 384.266
-93.8557 -28.4804 368.884
-95.8059 -91.3686 375.199
-56.1488 -47.107 400.138
-255.776 -105.718 205.016
-240.726 -95.857 247.83
-271.92 -101.897 111.729
-268.282 -110.414 165.158
-240.03 -176.33 220.066
-264.485 -133.804 187.985
-255.164 -173.412 161.376
-282.56 -40.7589 -60.3166
-286.5 -48.716 -34.7987
-260.155 -149.147 26.2233
-280.698 -96.2874 -13.4827
-251.4 -134.89 -20.0624
-286.804 -61.6067 -3.01453
-284.578 -77.032 44.6691
-201.682 -282.736 147.089
-226.777 -258.19 119.014
-204.059 -272.547 103.53
-255.356 -216.543 139.975
-244.582 -238.349 130.388
-228.545 -244.86 180.292
-235.98 -219.14 40.235
-246.552 -230.756 95.0311
-254.15 -205.365 70.2764
-272.187 -141.185 94.2073
-268.627 -175.24 89.7952
-270.773 -182.862 119.94
-256.178 38.529 -114.862
-263.886 -6.33679 -91.7205
-197.983 87.3663 -139.078
-245.157 67.4886 -133.367
-197.103 -90.524 -119.983
-217.149 -16.5554 -125.148
-172.903 -60.446 -147.153
-4.7394 143.539 -244.59
-36.9865 142.563 -238.16
-29.2941 105.211 -220.004
-31.7476 142.076 -237.33
-6.21429 126.732 -231.803
-78.3557 145.025 -227.745
-119.226 138.48 -215.822
-126.23 -146.109 -82.9603
-142.537 -77.586 -110.891
4.14514 -121.536 -77.2978
-155.582 -81.3958 -159.462
-162.617 -92.6284 -155.852
-177.001 -128.486 -126.13
13.3895 78.6193 -230.631
-101.414 -11.4623 -186.361
-46.1107 39.0881 -205.519
-115.469 83.7265 -173.472
-72.2278 42.7472 -193.824
[...]
POINT_DATA 642
SCALARS Mean_Curvature double 1
LOOKUP_TABLE default
0.0182463
0.026661
0.0256869
0.0169977
0.00402357
0.00364315
0.0126725
0.0095053
0.00328298
0.0105054
0.00435827
0.0121175
-0.00197829
0.00387544
-0.0209562
-0.0053507
-0.00424329
0.00365767
-2.88457e-05
-0.0346026
0.0751162
-0.00178421
0.00530469
0.000956037
0.00109188
0.0207211
0.00681237
0.00716258
-0.0318404
0.0483483
0.0161692
-0.0791118
0.0041522
0.000184082
0.0314505
0.0242913
-0.0053649
0.0379262
-0.146376
-0.0281403
0.00997119
0.0382937
0.0181795
0.0114768
0.026857
0.0135005
0.0109964
0.00526663
0.0101281
0.00876055
0.0109915
0.0173002
0.00010356
0.0163547
-0.00102336
0.00625475
0.0242502
0.0256579
0.00107924
-0.00780872
-0.0113842
0.00388206
0.0101769
0.00874693
0.0115654
-0.0137786
-0.00376841
0.0504409
0.00497878
0.0504298
0.038626
0.0170638
0.0132121
-0.0227208
-0.0397819
-0.00571131
0.00064139
-0.00219224
-0.00302434
0.00533313
0.00992986
0.00942868
0.0119567
0.0123761
0.018597
0.0139299
0.00613409
0.0111574
0.000764358
0.0225554
0.0228449
0.00801864
0.00658189
0.0158278
-0.000149804
0.0148672
0.0195815
0.000285434
-0.00107158
0.00213607
-0.106928
-0.0069083
-0.0461943
-0.0683703
-0.0127364
0.00382364
0.0761228
0.00822864
0.048001
0.00647702
0.0250377
0.132529
0.00962588
0.00591515
0.0103896
0.009983
0.0123336
0.00968005
0.00971388
0.0164367
0.02779
-0.00115741
-0.166605
0.0182192
0.0582278
-0.0499201
-0.0252389
0.0130163
-0.0228866
0.165949
-0.167681
-0.0148032
-0.0179901
0.0243046
-0.0132086
-0.00348293
0.00386727
-0.0470262
-0.219429
0.0192571
0.0131144
0.016641
0.0209886
-0.0135669
0.0262199
0.00220197
0.0028396
0.0170136
0.0155897
0.0132393
0.0103363
0.0173662
0.0210441
-0.950788
-0.0163081
0.00805975
-0.00388906
-0.151791
0.0158441
-0.0081281
-0.0725835
0.00830735
0.0171108
0.0285876
0.0229569
-0.00648496
0.0193175
-0.00581
0.0256701
0.0275633
0.0260647
0.00635042
0.00732816
0.010465
0.0096004
0.011534
0.011749
0.00299293
0.00894066
0.0042103
0.00251603
-0.00814827
0.0171367
0.0162498
0.0184891
0.0198547
0.00267853
-0.00411342
0.00439418
0.000885233
-0.00309733
0.00449379
0.0302227
0.011344
0.0146604
0.0262521
0.00984974
0.0216783
0.00167112
0.00744267
0.00646101
7.08429e-05
0.0102081
0.0178448
0.00669794
0.00165658
0.00453708
0.0275155
0.0201355
0.00210479
0.0317587
0.0161618
0.0264181
0.0351898
0.0249463
-0.00235174
-0.00334584
0.0105388
0.0116704
-0.000311465
-0.000749129
0.0281553
0.00992666
0.00630399
0.0133611
-0.000997746
0.0145978
0.00804084
0.00621087
0.00391502
0.0305993
0.00602652
0.0135197
0.00835261
0.0166031
0.00460609
0.00647106
0.0121633
0.00955333
0.0061863
0.00515938
-0.00136069
0.00898805
0.00686647
0.0599809
-0.0210158
-0.0271392
0.0621045
-0.0303907
0.244428
0.0956927
0.00850842
0.0130868
0.012802
0.00551784
-0.000476709
0.0104436
0.0120485
0.0201306
0.00781504
0.0170951
0.0480189
0.0349232
-0.0946535
0.00900723
0.0134224
0.011792
0.0100127
0.0216136
0.0234344
-0.00176667
0.0198509
0.0169505
0.000289463
-0.006576
0.0163481
-0.185867
-0.0604161
-0.0875247
0.0928837
-0.276259
-0.0916336
0.00532309
0.00253561
0.00878802
0.00573275
0.00116746
-0.00160547
-0.00503123
0.0271371
0.00591315
0.00353831
0.0294739
0.000540118
0.0167919
0.0256044
-0.00183498
0.0107705
-0.00399565
0.0165689
-0.00563196
0.00694482
-0.00558417
0.00171223
0.011762
0.0110851
0.00827458
0.00845125
0.0111378
0.00653602
0.0154009
0.00459541
0.00941494
0.0120494
0.00823743
0.00663922
-0.000941085
-0.000633842
0.0208495
0.0101689
0.00944149
0.0167276
0.020798
0.0253045
0.0195082
0.0119568
0.00598412
0.00316705
0.00816846
-0.00421869
0.0127693
0.00822285
0.000636855
0.00937284
0.00327527
-0.0146736
0.00174023
0.0184863
0.00437501
0.0124737
-0.00743057
-0.00325135
-0.00345995
0.016903
0.005547
0.00866291
0.00297641
0.011526
0.00300279
0.0157994
-0.00632097
0.019931
0.00983368
0.000991301
0.017056
-0.00436516
0.00275623
0.0152817
0.0108924
0.0112983
0.00892063
0.0118351
0.013131
0.0045891
0.00917057
0.0133466
0.00714515
0.00314126
0.00887102
0.0185363
-0.000469889
0.00604194
0.00312346
0.0135669
0.000711809
0.00534565
0.00233905
0.0913943
0.184383
-0.00241726
-0.0437356
0.00140494
0.0223762
0.0447171
-0.01545
-0.0129017
-0.00952343
-0.0258648
-0.0620641
0.0642067
0.0290174
-0.027978
-0.0239228
-0.00981772
-0.000843201
0.000703247
0.00893482
0.0111965
0.00979222
0.0100282
0.0889868
0.000911652
-0.021969
-0.00766909
0.0928814
0.0421123
0.00702108
0.0691442
-0.050207
-0.0274378
0.0173014
0.0193119
-0.00879028
0.0217073
0.0282862
0.0038882
-0.214364
0.0267794
0.0539513
0.0236524
0.0293241
0.019134
0.00443694
0.00996187
0.0126544
0.000956976
0.0156885
0.00750608
0.00809502
0.0128814
0.011154
0.00597016
0.00809827
-0.00158566
0.0103261
-0.00117798
-0.00287039
0.00629485
0.00512168
0.00494737
0.0163257
0.0238399
0.0102448
0.0112654
0.0174117
0.00713041
0.00330548
0.0261248
0.00429275
0.00798263
0.0108608
0.00415797
0.0216283
0.00780013
0.0466354
0.0294852
-0.0357779
0.0201013
0.000863539
0.0199313
0.0198091
0.0351115
0.0200122
0.00668989
0.0209279
0.025806
-0.0112682
0.0174887
0.0213548
-0.0022357
0.00589916
0.00067035
0.0226867
0.0362725
0.0747843
0.0444111
0.0326826
-0.0154127
0.0954028
0.0102889
-0.0103153
0.0941658
0.051237
0.223689
-0.0430975
-0.0116669
-0.0289296
-0.0229084
-0.10858
0.0297304
0.0597365
-0.00602383
0.0344652
-0.0218622
0.0414619
-0.01511
0.0200873
-0.0607406
-0.030137
0.0106144
0.00168238
-0.00502298
6.42759e-05
-0.00272527
0.00450111
0.000668425
-0.337174
0.108995
0.00668215
-0.000321826
0.0114643
-0.016893
-0.0135429
0.0587285
0.122738
0.0907289
-0.0188385
-0.295101
0.019071
0.00943156
0.0111166
0.00938359
0.00343739
0.00553349
-0.00405939
-0.00306456
0.0112258
0.088139
0.0148208
0.00334766
0.010868
0.00512462
0.0176212
0.0178714
0.0127985
0.000946966
0.0085268
0.0119234
0.00544408
-0.0378503
0.0170136
-0.013211
0.0033027
0.00367877
-0.000374069
0.0226662
0.00111243
0.00986758
-0.00160502
0.0161794
-0.00738796
0.00853061
0.0138756
-0.00505915
0.000196247
0.00431566
-0.00627994
0.013001
0.00716164
0.0141749
0.00707004
0.00590935
0.0213059
0.020795
0.0274942
0.00932449
-0.000395126
0.00168557
0.00557966
-0.00119423
0.00543792
0.01093
0.0111062
0.00936795
0.00401941
0.0204175
0.0106801
0.0274351
0.0127845
0.0104148
0.0074425
0.00222532
0.00600749
-0.00285896
0.0154032
0.00875368
0.00588263
0.0070726
-0.0202482
0.0947862
-0.0864172
0.0710915
0.124237
0.0110863
0.00812286
-0.00353886
0.128565
0.721543
0.0077092
0.0137312
0.000589729
0.00465884
0.00929096
0.149107
0.00227607
0.0201525
0.00262635
0.00162558
-0.00460209
0.00814889
-0.0336048
-0.0162747
0.0258631
0.0415899
-0.100285
0.0517622
0.326058
-0.016982
-0.86684
-0.110027
-0.00880937
0.00392563
-0.0136697
-0.0134588
0.00223581
0.0019407
-0.000862375
0.0025969
0.00589996
-0.230622
-0.0809782
-0.105991
-0.0909729
-0.0675056
0.00367969
-0.00661427
0.00277852
0.0197089
0.0128277
0.00349095
0.0045969
0.00762634
SCALARS CoVolArea double 1
LOOKUP_TABLE default
1889.59
1778.62
1128.5
1438.46
1147.87
1303.8
1209.32
1257.4
1698.7
1135.15
1650.27
978.726
6576.34
1958.74
1339.51
1143.75
2770.43
2988.98
3377.66
2183.08
261.325
2494.64
1990.04
5891.79
2654.08
1257.02
2121.86
2530.41
1449.33
1024.05
201.765
1720.93
2235.85
2798.38
1325.84
1486.37
5932.92
817.86
437.202
1338.77
2061.89
1740.11
1487.8
1621.09
480.163
1080.46
2125
1545.88
1539.22
2575.32
1589.55
1357.12
1022.83
1393.02
3482.84
880.67
1007.55
459.627
2209.51
3361.53
3087.3
2146.48
1667.69
2042.58
1617.85
1182.75
1900.58
967.707
2653.89
315.703
1004.37
1170.13
1488.52
1975.34
804.254
4839.29
2300.81
1889.2
2124.84
1910.17
2406.13
1237.36
1733.38
923.41
1101.91
547.577
2338.23
2472.94
3167.59
2739.01
863.439
1748.36
1952.01
1540.19
2224.04
1667.24
1046.81
1720.41
4595.9
2522.29
213.756
2587.02
2255.78
1011.13
16019.8
3633.38
925.819
1333.65
650.185
1043.63
1023.98
254.668
1498.29
2056.77
1620.52
2107.79
1850.85
1588.01
1679.21
1481.82
718.44
980.333
632.135
1578.47
827.708
1145.29
1183.31
1590.63
6750.47
395.923
349.297
7577.22
3390.4
7961.65
3663.22
927.306
1566.4
1092.99
140.052
1275.01
1514.27
2133.14
1007.33
1517.72
1541.98
2387.8
2597.58
2910.27
1703.66
1520.98
2039.37
1648.85
1789.18
57.4052
928.237
1701.84
5207.36
554.094
3149.77
5373.15
1117.32
1373.76
2155.16
656.16
801.669
3066.89
1043.38
4074.57
656.339
585.973
1241.25
1150.16
1181.19
1272.19
1843.71
1041.29
1103.66
3409.72
1451.6
3137.77
2055.37
1983.1
1157.77
1511.54
1574.96
1229.67
2062.23
2711.41
2891
3303.67
3418.35
2883.78
674.231
1868.15
1287.87
445.98
1501.78
781.03
2548.76
1900.25
1880.77
1988.28
1808.17
1182.7
1947.15
2488.89
2060.15
741.664
997.732
2256.98
616.524
1144.88
591.117
410.958
925.002
3159.98
2677.94
2429.32
2818.14
3280.97
2382.45
1310.51
3557.26
2895.04
2607
3009.17
2452.3
3104.23
3050.37
3682.53
1060.64
2138.05
1615.81
1693.44
1549.02
2158.12
1854.06
1976.5
2095.63
1808.15
2353.28
3062.34
2672.72
2604.55
1413.74
3485.83
3998.99
1339.97
379.863
200.371
426.216
1341.11
1720.37
3139.16
2321.38
1247.18
2119.13
3542.55
1145.7
901.616
1687.73
770.778
516.515
160.643
1363.71
603.737
1725.78
2862.23
1956.55
1289.72
3299.37
461.272
1522.17
2571.69
5621.18
1705.14
524.443
2327.98
746.855
1882.42
66.8166
213.363
2168.45
1487.7
5218.94
3353.03
3401.74
5072.75
5889.48
597.545
2951.26
2307.6
786.889
1613.86
1291.98
613.131
5381.38
1870.32
3985.53
1218.6
2028.73
2635.72
2810.82
2366.62
1652.12
1564.81
1228.75
942.657
955.412
2754.7
995.99
2405.68
1037.26
946.867
1657.22
2789.13
2874.04
3080.71
606.854
712.258
1597.85
805.518
530.288
473.376
995.844
1473
1415.14
4025.1
2137.05
2807.87
1179.41
1674.75
2016.77
1966.99
1365.44
2226.76
2624.99
2479.06
1050.94
1386.82
3385.34
2547.37
4135.01
2461.78
1403.52
1500.64
2238.35
1510.5
2354.42
1676.91
2192.42
1963.19
1728.64
2706.27
1789.74
2017.55
2290.33
2267.9
1574.44
1277.52
1405.68
1623.6
1189.3
1871.33
1582.35
1236.25
1856.88
2085.2
1920.96
1455.89
2174.5
2266.3
3802.6
2422.56
2291.49
2913.73
2457.63
667.025
312.189
1965.16
597.302
903.368
199.569
2043.77
3563.52
10162.7
11665.8
802.628
1680.84
352.207
5153.29
6047
1483.7
5808.1
3620.96
3602.51
1697.35
1264.03
2794.14
2471.58
1370.31
2786.15
3790.29
2550.81
1286.58
311.251
209.253
394.397
1168.92
2178.96
1376.56
693.202
1056.69
1599.63
646.202
865.641
143.334
583.181
663.374
2072.75
1086.81
2384.69
1607.57
1748.82
1809.87
2324.53
1739.98
1610.6
963.006
1502.33
1505.38
1360.76
2065.31
1612.66
2082.98
2402.08
2911.38
1888.38
1971.37
2247.08
1304.04
1264.44
1214.26
1711.66
1512.12
1740.95
1209.22
854.266
1272.06
2426.37
1912.67
2180.82
1411.94
1260.49
721.527
976.657
2542.19
995.268
2979.47
1245.63
1401.62
1082.52
1405.77
1766.8
1474.15
1155.92
1322.56
1368.45
1808.1
3348.26
1396.8
3007.52
1040.22
840.481
668.286
517.622
483.476
1735.03
417.858
1304.98
11231.3
1405.07
156.238
548.51
2000.3
1030.8
657.661
2409.88
995.024
313.335
2466.22
11826.7
3874.02
8349.95
3878.95
2926.36
4901.84
998.186
1416.56
4955.7
3012.63
15062.1
8956.98
9105.32
1473.85
1732.9
158.5
574.086
1405.36
1369.96
1376.93
2883.03
1057.56
472.942
284.825
101.787
434.09
67.9058
1799.22
1674.41
1790.97
1578.98
1591.43
1751.5
2431.11
1836.23
1488.82
543.211
953.868
1395.24
1327.64
1844.1
1123.45
1052.83
1398.41
1847.41
1589.8
1993.6
1421.82
1115.71
1233.93
2346.8
1316.91
1765.07
1760.3
1192.88
2772.81
1614.59
2799.13
1847.98
3010.86
1810.9
1660.31
3339.88
1414.81
2135.97
1811.25
1032.01
1478.17
873.855
1687.88
3275.02
704.289
1087.2
544.884
1104.89
1895
3656.36
2517.39
2996.8
2036.35
1695.72
1647.42
1949.58
2396.82
1327.66
1221.07
992.838
1644.52
1930.12
2169.74
2364.76
2025.1
2127.78
1782.98
2231.33
1963.2
2438.66
1415.18
228.991
715.426
491.513
328.038
1389.71
1652.03
1597.71
537.547
74.4332
2072.69
1454.77
2036.99
1791.77
1848.49
404.434
1510.49
882.691
1897.82
2973.25
3018.59
2330.51
3340.24
8024.08
923.453
4280.04
787.239
852.541
246.922
1920.03
88.3197
593.266
1962.81
4251.02
4007.04
6946
2355.8
4496.51
4811.18
3520.52
4838.25
463.65
345.523
70.7736
439.539
1969.57
2000.46
5009.11
2649.51
1098.55
533.069
3240.79
1031.95
2831.57
SCALARS SignedDistance double 1
LOOKUP_TABLE default
37.3973
46.0157
45.2506
43.7394
32.4908
41.7287
176.035
28.3498
33.3245
37.1428
33.4575
34.8377
40.9029
38.8157
47.1409
47.725
36.2619
34.4868
33.3627
44.7606
34.4432
38.7887
37.5533
40.7002
35.0057
35.5937
38.4751
34.848
73.3657
75.9904
36.4751
80.9248
36.9627
37.2194
31.3562
29.4204
96.5266
58.3958
56.7308
59.2222
41.05
37.3814
49.0541
44.8953
30.8076
34.0437
36.1257
38.3458
36.6111
38.7855
36.0101
35.4707
36.8209
35.8062
44.0521
37.1848
35.6838
32.6693
35.7712
43.6727
46.7641
36.4224
28.5262
31.943
27.616
44.1
37.0548
37.5334
39.382
44.5504
30.3624
33.2887
43.3629
41.7305
37.4182
45.9407
38.6916
45.1981
45.7961
37.7377
37.6005
39.6375
35.6864
35.4955
32.7172
34.5717
34.6775
33.7265
34.6652
33.8694
33.8031
37.1645
36.3171
30.6504
43.5984
29.0925
32.3171
33.6208
38.7846
37.3279
38.8468
38.7304
53.5599
95.08
135.481
45.3178
38.2963
36.1583
39.3909
32.72
27.9457
48.0413
33.0002
32.7723
35.3062
35.2336
35.9785
38.4503
26.5725
34.02
35.7812
41.6782
67.9071
23.3101
43.7368
66.535
41.8649
35.6166
52.2908
64.054
66.5024
55.1078
48.4264
190.215
61.9417
44.1628
33.5103
55.7099
50.9787
31.1526
31.6589
36.1249
37.0613
52.2426
36.4194
39.6108
39.8349
34.7186
34.7067
35.7634
30.1834
30.5377
34.2931
58.7225
53.5818
31.1677
40.5623
89.6576
40.4708
56.1673
44.1523
43.3933
44.9692
33.0941
30.729
44.7766
39.712
48.1092
35.4303
35.2987
46.9466
36.4404
36.8537
36.1844
35.386
35.2076
34.5018
38.6979
36.597
38.8971
53.3789
50.7696
38.5564
34.9112
34.6395
34.7291
37.6757
44.4081
40.8989
39.729
44.1805
38.1026
32.8473
32.1285
36.2737
34.1786
37.9712
36.0368
36.6829
53.2733
36.4633
46.2853
35.9719
36.1497
35.8056
45.8501
33.9378
31.7351
34.367
35.5694
35.7986
37.649
34.6157
33.2595
35.8479
38.5723
39.789
35.6816
32.0973
38.814
38.7491
35.4517
34.0623
32.6461
31.4915
44.5171
33.7345
31.8684
33.6566
41.2527
34.154
39.9649
26.0653
28.9638
25.8371
31.2641
30.3197
30.793
29.9798
31.2234
30.5114
35.7791
33.3166
33.7126
63.5731
43.9014
41.9037
64.0225
31.2655
43.6374
34.0919
32.1324
26.0847
46.1407
28.1029
45.907
27.57
31.0267
34.155
29.8547
31.0768
28.6822
31.9841
43.947
38.9521
31.9159
37.7749
51.6587
41.6248
30.5907
43.2518
34.3391
37.6339
43.5246
46.16
37.5344
40.1486
43.5794
41.0769
54.4671
44.8879
43.8701
38.2728
39.1795
37.4727
38.5605
40.8965
41.4899
44.112
41.452
42.944
42.9968
37.4317
47.1498
46.5312
38.426
42.7183
43.2117
43.0576
38.5419
50.6202
39.7984
45.6272
39.6731
36.0426
36.379
37.5148
37.9469
37.9936
40.0337
36.7303
40.5098
36.0871
36.088
36.6663
38.5615
43.4533
42.341
35.6777
36.2654
38.3617
34.03
33.545
34.0257
34.6314
34.9076
35.6823
39.2795
34.3454
37.1329
33.9908
36.6173
32.6526
33.3018
32.6626
41.814
34.5361
41.1611
33.9239
35.5323
36.7883
40.6115
42.558
38.1535
37.8221
37.7312
38.2034
38.6044
35.3077
35.6503
40.7936
32.3013
36.4503
40.4666
34.6945
42.8718
36.7887
41.0266
32.8371
32.4828
35.606
32.7772
33.078
34.0346
31.5363
31.5435
33.6131
38.4686
36.974
44.4577
35.6337
33.8483
45.1853
42.237
41.494
38.8999
52.9995
40.2162
40.4479
55.3733
37.6625
41.5263
38.7863
46.1483
86.6602
59.9364
169.421
81.7029
82.8544
71.3311
84.1378
110.843
117.698
70.5892
112.378
72.7216
28.2332
32.7749
39.7451
27.9471
65.864
33.4661
58.3787
41.8026
51.2911
34.5368
36.1622
35.214
49.6777
47.4394
31.976
31.4397
41.7186
38.261
30.433
40.8668
45.4732
32.1029
35.825
47.0843
26.2951
36.6756
32.616
32.4908
42.7814
35.8461
31.8541
33.8439
34.2181
30.7591
33.1062
37.1561
37.229
40.2486
34.4937
38.532
40.8069
34.8693
36.1845
35.5261
30.697
28.9224
32.8743
31.0518
25.6199
27.8359
35.9911
33.6686
37.6554
34.3565
32.7365
33.0274
52.7116
63.6295
41.2966
39.0201
49.918
47.5172
53.4581
31.7588
24.2796
43.8975
23.9595
26.1447
24.4184
38.762
54.7566
51.6175
45.879
60.5438
49.5669
58.8395
33.8857
44.7007
43.2194
42.2706
44.0353
40.8344
70.9729
61.9921
60.0561
76.4197
55.5582
65.6001
50.5875
61.7722
72.0066
48.1536
68.5787
59.1039
76.0528
83.2936
94.3516
176.666
123.369
48.9755
88.8069
51.1153
44.2595
105.341
63.7287
174.691
114.605
94.3847
47.7733
35.6722
56.7168
56.6074
35.2818
35.4898
31.5782
59.769
46.5804
53.1441
53.1751
60.1655
51.1061
54.8867
33.961
34.042
34.4516
35.6271
41.091
42.9909
35.302
43.0888
33.6266
54.8339
43.8067
33.8937
33.5767
37.5585
32.6036
32.6395
35.6191
41.4227
37.2922
37.5977
37.6824
45.8496
34.8439
44.2317
39.7632
38.8921
44.6211
38.9124
41.7562
39.2691
41.8197
39.4765
43.3761
40.1649
35.8574
36.2023
37.0377
35.9549
45.3405
35.4341
36.6821
35.1814
35.6394
38.1458
34.8182
33.6817
33.4688
36.1327
39.0426
44.4135
39.6384
43.4345
32.2591
29.8745
31.3459
32.5879
33.6053
30.242
35.3004
34.7987
25.0579
26.9767
33.1354
35.6262
35.8492
38.7259
34.2024
30.1804
32.9742
31.3358
54.8188
57.9953
58.4085
61.7968
63.2193
55.8672
30.6757
37.3976
59.7939
58.1886
34.6808
47.7727
34.1786
38.7859
33.1235
58.3111
36.1375
57.0517
33.8217
41.9622
41.6129
36.1536
67.0948
47.6148
117.188
98.938
74.2509
74.8253
40.0006
65.3449
35.8006
38.769
55.8037
72.0425
117.619
61.2648
42.0305
43.2873
41.8609
40.3982
41.2196
49.6976
45.502
47.7294
46.1295
49.9812
44.7445
46.8979
44.0603
38.9465
36.6919
41.8005
41.603
42.2916
