# vtk DataFile Version 4.2
vtk output
ASCII
DATASET POLYDATA
POINTS 642 double
-358.037 545.667 97.5984
356.264 543.287 97.3572
-357.895 -611.449 99.0369
356.361 -609.465 99.2225
-0.13679 -400.006 691.587
-0.159765 319.952 671.271
-0.129901 -381.011 -463.857
-0.0637045 331.898 -491.552
582.278 -30.6038 -261.616
570.71 -33.2416 451.592
-585.444 -30.4888 -263.382
-574.258 -33.2488 453.485
-540.578 302.291 303.298
-336.324 174.544 643.183
-208.601 513.501 434.396
207.812 512.271 433.65
-0.0692503 647.316 97.7699
212.066 522.488 -245.703
-212.728 523.698 -246.459
-345.619 180.738 -459.618
-563.895 315.707 -117.193
-676.065 -31.8172 96.7911
335.145 173.786 641.361
537.349 300.1 302.172
-343.499 -247.018 655.566
-0.088716 -33.1151 778.917
-548.42 -371.649 -111.045
-550.192 -373.508 308.894
-0.123916 -30.8731 -587.339
-338.256 -241.111 -448.089
560.214 313.564 -115.868
344.504 180.333 -458.492
547.305 -371.908 307.836
341.676 -246.33 653.413
213.929 -594.826 446.114
-214.501 -595.945 446.822
-0.204699 -715.292 101.055
-208.419 -576.93 -238.084
207.992 -576.027 -237.542
337.342 -240.718 -446.725
546.322 -370.368 -110.475
673.38 -31.9395 96.7779
-469.688 442.488 205.359
-395.686 432.168 383.448
-294.563 553.65 274.312
-473.353 75.0708 566.442
-461.356 251.231 492.42
-578.822 141.068 389.857
-107.853 432.526 568.714
-284.116 360.876 559.106
-174.73 258.8 680.428
-111.185 613.399 275.986
-186.072 623.153 98.0206
107.478 432.001 568.138
-0.080728 538.318 450.468
185.772 622.742 97.8899
110.738 612.484 275.729
293.262 551.639 273.69
-111.382 618.16 -82.0493
-297.486 556.082 -80.3615
297.359 556.346 -80.2503
111.016 616.999 -81.6696
-111.055 447.356 -387.918
-0.0975012 553.061 -264.994
110.75 446.897 -387.473
-408.721 444.947 -196.947
-481.392 453.392 -14.2593
-179.571 267.808 -498.691
-293.42 372.686 -376.462
-601.662 149.002 -204.524
-480.059 263.507 -311.166
-487.022 79.9379 -382.329
-586.275 329.746 96.1871
-659.346 -30.3046 -90.1557
-661.242 150.476 -15.9587
-641.497 145.505 205.04
-647.961 -33.6626 282.45
393.424 429.947 382.08
466.873 439.753 204.466
174.013 258.1 679.025
283.115 359.772 557.842
575.682 140.303 388.45
459.415 250.075 490.88
471.325 74.5915 564.691
-177.682 77.6039 744.137
-0.135232 152.082 751.296
-474.95 -142.593 568.528
-356.024 -33.1752 674.08
-0.0906485 -222.503 759.314
-178.838 -145.784 746.63
-180.021 -334.376 696.817
-644.32 -211.123 208.556
-584.204 -209.451 392.382
-586.344 -208.811 -196.651
-644.501 -210.543 -12.3045
-472.788 -511.542 208.306
-578.66 -391.038 98.4903
-471.34 -509.383 -10.2348
-358.205 -30.7676 -479.371
-477.461 -140.643 -372.973
-0.0722957 156.536 -567.4
-180.693 80.7359 -557.739
-175.794 -324.795 -482.64
-177.223 -141.027 -543.972
-0.050763 -212.077 -543.46
292.512 371.598 -375.41
179.114 267.338 -497.794
478.746 450.965 -13.6547
406.734 442.882 -195.669
484.671 79.1824 -380.214
477.389 261.966 -309.05
597.004 147.679 -202.218
470.865 -509.746 207.927
402.089 -505.614 390.557
297.439 -626.497 278.544
472.938 -141.973 566.593
467.782 -322.976 499.1
580.866 -208.486 390.757
111.691 -517.689 588.759
293.263 -440.053 575.064
179.706 -333.975 696.053
112.403 -692.581 281.608
184.749 -685.565 100.286
-112.021 -518.25 589.359
-0.0672957 -627.671 466.717
-185.253 -686.818 100.26
-112.6 -693.255 281.733
-298.35 -627.801 278.857
110.68 -670.636 -77.0039
292.718 -613.724 -76.4578
-293.547 -615.12 -76.6978
-110.998 -671.124 -77.0799
109.331 -497.235 -371.683
-0.0843408 -593.48 -249.155
-109.631 -497.572 -372.065
397.002 -497.302 -188.373
469.184 -507.33 -9.94402
175.135 -323.928 -480.704
286.503 -428.267 -365.12
584.275 -208.226 -195.665
465.264 -319.496 -298.711
475.959 -140.397 -371.634
575.317 -389.138 98.4672
654.611 -30.5722 -88.8208
642.507 -209.855 -12.3084
639.718 -209.957 207.958
643.441 -33.7413 281.076
178.413 -145.62 745.863
355.047 -33.1603 672.641
176.971 77.3031 742.6
-403.858 -507.236 391.585
-294.195 -441.096 576.268
-470.301 -324.329 501.003
-287.063 -428.934 -365.903
-398.071 -498.393 -189.006
-466.646 -320.265 -299.798
357.972 -30.6995 -479.001
176.397 -140.69 -542.058
180.239 80.7038 -556.927
636.656 144.043 204.254
655.728 149.062 -15.1971
582.281 327.555 96.1736
-418.266 499.34 151.929
-387.127 505.542 242.25
-329.238 555.926 187.32
-474.63 372.881 346.898
-437.071 442.554 297.655
-511.164 376.702 256.037
-254.047 539.45 357.291
-349.101 498.306 331.933
-306.147 479.527 412.826
-528.769 21.4818 513.955
-533.289 109.898 482.963
-582.154 55.0123 424.715
-404.218 215.784 573.409
-472.105 165.647 533.953
-408.838 126.408 609.725
-564.488 223.463 349.23
-525.415 198.814 444.759
-506.671 279.972 401.773
-54.4576 379.346 623.886
-142.499 349.711 630.178
-88.2949 292.758 681.864
-249.04 442.4 501.455
-198.288 401.431 568.728
-159.375 477.072 504.959
-257.787 218.974 667.076
-231.733 312.556 623.806
-313.438 270.961 606.954
-432.166 345.044 440.878
-377.324 310.341 530.977
-343.775 401.565 475.773
-243.925 596.813 187.58
-274.374 590.638 98.1739
-162.314 571.226 358.681
-204.822 590.237 277.28
-94.3733 643.104 97.8454
-149.922 625.269 188.19
-56.6545 638.401 187.847
54.1231 379.071 623.509
-0.140053 437.893 574.446
105.404 532.666 446.849
54.5444 490.528 513.455
158.848 476.278 504.29
-54.813 490.795 513.709
-105.757 533.037 447.124
273.366 589.264 97.9924
242.956 595.07 187.17
327.643 553.676 186.916
56.4402 638.474 187.817
149.41 624.17 187.888
94.1904 642.677 97.8341
253.007 537.777 356.516
204.089 588.774 276.851
161.712 570.141 358.244
-56.1575 584.498 367.381
55.9539 584.589 367.467
-0.103203 619.351 277.671
-244.068 597.663 8.10797
-330.55 555.052 7.76928
-56.6209 641.402 7.09082
-150.012 626.989 7.29574
-257.471 544.844 -165.389
-205.735 593.54 -82.9214
-163.802 578.353 -167.127
329.367 553.668 7.68953
243.596 596.725 8.16455
163.346 577.273 -166.697
205.425 592.289 -82.4577
256.683 543.32 -164.514
149.802 626.418 7.51514
56.4161 641.041 7.20031
-56.1624 393.985 -445.157
-0.0720625 453.697 -394.529
55.9864 393.832 -444.974
-107.614 545.545 -260.344
-56.0912 506.107 -330.671
-163.506 490.942 -321.219
162.981 490.063 -320.544
55.8923 505.909 -330.528
107.289 544.91 -259.996
-0.152034 627.073 -84.6065
56.3117 593.304 -176.563
-56.5994 593.819 -176.744
-396.373 514.571 -50.1073
-423.837 504.499 40.6454
-314.551 490.436 -225.289
-357.906 508.097 -141.478
-529.04 390.042 -67.4325
-449.954 454.323 -107.432
-492.695 386.093 -160.401
-90.8023 303.179 -501.131
-147.245 363.022 -450.932
-323.43 280.665 -424.668
-239.044 324.233 -443.625
-264.661 226.37 -484.358
-204.351 415.007 -387.634
-256.333 454.781 -316.857
-600.409 59.8495 -238.076
-552.945 116.511 -299.912
-541.987 25.2524 -327.041
-529.028 293.78 -218.506
-546.519 208.828 -261.581
-588.508 234.911 -163.296
-422.129 132.617 -428.017
-489.026 173.56 -352.075
-418.777 225.327 -392.505
-356.908 415.663 -292.969
-392.899 323.923 -350.702
-450.74 360.059 -259.152
-482.228 454.177 95.944
-584.24 328.645 -11.4957
-540.006 395.899 40.3652
-533.114 390.237 151.067
-570.649 320.568 201.057
-629.101 -30.4804 -179.312
-641.298 60.0027 -150.519
-678.646 60.9225 39.164
-669.929 61.2139 -55.1826
-671.84 -30.3974 3.13302
-638.087 151.793 -111.677
-621.758 236.721 -68.9284
-621.068 54.9675 339.507
-616.992 -33.4044 370.452
-596.753 225.927 255.547
-613.814 143.905 299.474
-667.097 -33.3287 190.684
-648.375 56.2969 245.231
-665.235 58.2446 151.33
-632.4 244.26 39.6628
-663.491 151.889 95.6533
-625.46 241.503 151.559
385.049 503.101 241.572
416.05 496.664 151.441
304.728 477.702 411.684
347.355 496.144 330.935
507.726 374 254.683
434.432 440.169 296.543
471.253 370.149 345.355
87.8767 292.357 681.162
141.988 349.081 629.229
312.314 270.023 605.308
230.923 311.699 622.372
256.756 218.131 665.139
197.649 400.56 567.735
248.091 441.147 500.438
578.754 54.6427 423.091
530.627 109.234 481.259
526.184 21.2887 512.24
504.557 278.51 400.754
522.938 197.851 443.244
561.747 222.223 348.289
407.236 125.744 607.948
469.99 164.795 532.183
402.581 214.829 571.646
342.212 399.855 474.424
375.9 309.149 529.586
430.141 343.254 439.593
-88.9104 209.15 724.482
-0.146803 239.096 717.449
-260.159 128.395 700.796
-178.336 170.548 718.89
-0.130493 60.8116 772.059
-90.001 116.245 754.999
-90.1749 23.3156 770.529
-530.215 -87.9867 514.954
-480.943 -33.12 573.673
-352.001 -140.697 668.09
-419.876 -88.5404 626.849
-413.55 -196.405 616.552
-419.061 21.7306 625.77
-350.834 72.3814 665.658
-0.0873376 -314.347 734.27
-91.1828 -282.318 738.431
-91.0706 -370.712 700.412
-90.422 -89.9277 772.186
-91.062 -185.329 760.461
-0.0868709 -127.911 774.092
-264.908 -292.842 682.117
-182.686 -242.695 731.954
-264.736 -199.194 710.816
-270.144 22.7115 716.586
-271.05 -89.9949 718.576
-180.35 -33.1586 753.306
-625.13 -122.242 340.67
-584.901 -121.954 425.996
-667.197 -122.976 153.956
-653.808 -123.161 247.165
-572.741 -293.928 353.261
-620.23 -212.026 302.188
-604.706 -295.152 260.524
-589.323 -120.564 -231.834
-629.12 -120.8 -145.966
-603.75 -294.086 -63.7146
-622.28 -211.703 -106.636
-572.26 -292.507 -156.093
-656.494 -121.985 -51.9906
-669.134 -122.682 41.6665
-419.502 -566.927 154.211
-478.849 -517.339 98.6369
-418.869 -565.596 43.7367
-571.489 -386.763 204.69
-531.53 -455.372 153.764
-516.691 -446.578 260.249
-514.758 -444.324 -62.1666
-530.823 -454.668 43.4533
-570.359 -385.843 -7.49424
-653.886 -213.789 98.1967
-619.99 -304.423 42.5728
-620.49 -304.781 154.272
-488.783 -30.6317 -383.841
-535.25 -86.1248 -321.922
-357.829 76.2992 -478.75
-427.434 25.151 -437.71
-411.386 -192.728 -415.369
-422.329 -86.3538 -431.606
-352.466 -137.894 -470.26
-0.0696668 246.982 -535.65
-90.8964 215.481 -541.419
-91.0028 25.751 -581.311
-91.7307 120.091 -570.877
-0.0753533 63.5665 -585.808
-182.189 175.585 -534.594
-266.231 132.941 -516.893
-90.2644 -356.706 -480.227
-89.9795 -272.071 -520.629
-0.111172 -298.635 -507.705
-260.78 -193.574 -502.901
-178.619 -235.172 -518.537
-258.931 -285.179 -470.272
-0.109186 -123.096 -574.536
-89.5447 -178.073 -550.999
-89.9386 -86.532 -574.768
[...]
POINT_DATA 642
SCALARS Mean_Curvature double 1
LOOKUP_TABLE default
0.00277068
0.00255917
0.00329585
0.00319211
0.00349167
0.00342325
0.000979084
0.00344011
0.00350707
0.00331372
0.00357684
0.0033992
0.0017929
0.00280583
0.00297788
0.00297236
0.00245221
0.00278234
0.00278467
0.0024393
0.00277946
0.00243139
0.00282686
0.00171018
0.00357142
0.00267569
0.00281121
0.00272835
0.00320533
0.00282386
0.00277262
0.00263104
0.00278355
0.00345605
0.00290066
0.00292426
0.00323538
0.00275092
0.0027301
0.00284034
0.00284475
0.00280138
0.0022337
0.00307754
0.00303985
0.0029443
0.00287611
0.00292079
0.00288887
0.00268695
0.00304966
0.00316135
0.00289958
0.00288567
0.00234695
0.00310957
0.00307813
0.00303944
0.00293953
0.0022604
0.00294881
0.00278676
0.00296295
0.00302158
0.0029765
0.00303293
0.00337343
0.00295828
0.00221111
0.00320483
0.00302583
0.00317239
0.00328076
0.0030471
0.00353712
0.00258895
0.00281427
0.00303191
0.00209379
0.00300163
0.00271932
0.0029352
0.0028997
0.00296209
0.00309768
0.00303346
0.00230286
0.00283193
0.00261412
0.00204802
0.00279262
0.00287678
0.0027186
0.00293155
0.00262109
0.00266748
0.00303115
0.00287307
0.00207728
0.00263093
0.00280992
0.003278
0.00339837
0.00247673
0.00159009
0.00228455
0.0029471
0.0033012
0.00301545
0.00326626
0.0030272
0.00307006
0.00284277
0.00297271
0.00321782
0.00250494
0.00282542
0.00272369
0.00302745
0.00298573
0.002894
0.0031584
0.00237267
0.00304336
0.00302665
0.00237396
0.00315499
0.0031719
0.00300758
0.00278156
0.0027362
0.00293538
0.00327936
0.000331871
0.0032434
0.00297379
0.00283927
0.00300907
0.00297367
0.00294289
0.00291805
0.00273073
0.00303515
0.00269534
0.00298747
0.00277296
0.00269889
0.00218391
0.00295369
0.00305106
0.00295401
0.00296907
0.00284166
0.00293564
0.00295523
0.00290965
0.00254854
0.0023047
0.00338615
0.00230036
0.00345372
0.00319994
0.00221551
0.00302805
0.00304705
0.00303918
0.00307656
0.00239308
0.0030787
0.00306567
0.00301293
0.00291474
0.00294276
0.00292144
0.00292585
0.00296035
0.00294522
0.00269428
0.00295219
0.00249861
0.00261178
0.00260919
0.00306996
0.00276306
0.00283289
0.00274984
0.00288577
0.00257404
0.00268597
0.00237313
0.00260019
0.0027187
0.00304739
0.00287444
0.00308025
0.00305369
0.00328424
0.00296808
0.00279113
0.00259633
0.0027253
0.00291346
0.0027777
0.00275606
0.00279235
0.0028565
0.00291668
0.00297139
0.00301783
0.0029396
0.00287055
0.00326364
0.00307334
0.00306287
0.00305354
0.00296937
0.00311723
0.00243466
0.00284861
0.00153548
0.00281937
0.00282342
0.00217181
0.00274893
0.00288017
0.00153708
0.0028715
0.0028884
0.00261387
0.00199083
0.00288576
0.00280253
0.00297964
0.00298485
0.00301192
0.0028879
0.00294311
0.00299003
0.00298744
0.00298641
0.00289533
0.00300196
0.00283102
0.0028578
0.0040459
0.00311069
0.00299318
0.00326756
0.00351938
0.00283636
0.00292022
0.00296505
0.00297962
0.00233283
0.00296257
0.00269847
0.00300386
0.00248149
0.0031713
0.00365538
0.00301269
0.00302191
0.00287844
0.00281672
0.0037882
0.00289977
0.00306594
0.00313886
0.00318605
0.00301498
0.00301676
0.00323716
0.00319194
0.00291793
0.00314361
0.00298783
0.00327969
0.00375487
0.00403698
0.00145837
0.00291814
0.00342307
0.00288581
0.0028828
0.00143948
0.00238359
0.00256639
0.002147
0.00150843
0.00303964
0.00386205
0.00363193
0.00302993
0.00209387
0.00299095
0.00307098
0.00220076
0.00312887
0.00275703
0.00305391
0.00259574
0.00269411
0.00256334
0.00279357
0.00284545
0.00277275
0.00294448
0.00294324
0.00298623
0.00270255
0.00295903
0.00285054
0.00294171
0.00294315
0.0029095
0.00268183
0.00266287
0.00240743
0.003094
0.00305596
0.00290051
0.00306886
0.00306186
0.00307727
0.00302752
0.0029701
0.00295376
0.00182507
0.00275148
0.00318454
0.00295777
0.00286328
0.00355751
0.00310756
0.00300811
0.0029885
0.00263794
0.00245255
0.00299733
0.00382114
0.00345008
0.00274378
0.00263501
0.00271019
0.00304832
0.00286877
0.00260232
0.00319319
0.00273934
0.00268404
0.00283279
0.00237362
0.00238682
0.00259564
0.00300554
0.00278228
0.00266228
0.00281609
0.00271613
0.00306739
0.00300721
0.00291075
0.00297119
0.00269819
0.00282629
0.00299171
0.00291053
0.00304045
0.00297699
0.00303731
0.00316217
0.00238933
0.00273965
0.00318401
0.00277293
0.00243097
0.00280538
0.00299472
0.00281263
0.00308304
0.00344246
0.00335676
0.00269446
0.00325719
0.00321539
0.00314088
0.00108751
0.00278938
0.00295482
0.00271377
0.00365584
0.00207597
0.00332952
0.00299249
0.0028247
0.00230541
0.00296692
0.00299106
0.00236619
0.00300022
0.00260641
0.00289122
0.00262981
0.00328599
0.00390879
0.00291711
0.0028327
0.00352103
0.00308884
0.00312371
0.00327301
0.00312588
0.00330354
0.0030411
0.00299536
0.00317196
0.00285562
0.00298202
0.00301784
0.00310392
0.00301582
0.00310962
0.0027589
0.00258574
0.00275531
0.0027702
0.00268557
0.0028238
0.00291791
0.0031548
0.00302004
0.00289175
0.00256275
0.00294281
0.00297863
0.00294865
0.00261134
0.00273845
0.00289158
0.00284281
0.00310899
0.00290234
0.00280152
0.00294661
0.00294399
0.00296984
0.00321297
0.00296023
0.00301557
0.00286707
0.00301525
0.00301827
0.00254233
0.00267454
0.00270892
0.00367789
0.00301192
0.00313562
0.00297572
0.00305295
0.00305072
0.00303971
0.00307294
0.00300241
0.003119
0.00304417
0.00250617
0.00281551
0.00249858
0.00317094
0.00308692
0.00309557
0.00290779
0.00345682
0.00280074
0.00301564
0.00298227
0.00376379
0.00271018
0.00284823
0.00249091
0.00286558
0.0028367
0.0025705
0.00335192
0.00296051
0.00276886
0.00339913
0.00267978
0.00276364
0.00283128
0.00258849
0.00330249
0.000324533
0.0032989
0.00336124
0.00334549
0.00345342
0.00350429
0.00332028
0.00331627
0.000772433
0.00298829
0.00301469
0.00279928
0.00292784
0.00295787
0.00293948
0.00282959
0.00290139
0.00295357
0.00331847
0.00340164
0.00298555
0.0028366
0.00287286
0.00275679
0.00287383
0.00250248
0.00291055
0.00228801
0.00289594
0.00282292
0.00282098
0.00273609
0.00278943
0.00291342
0.00295862
0.002959
0.00295132
0.00297218
0.00281453
0.00299071
0.00290119
0.00286661
0.00289644
0.00257345
0.00304745
0.00280594
0.00160451
0.00299389
0.00265449
0.00313845
0.00272348
0.00285406
0.0027823
0.00259159
0.00315988
0.00243877
0.00284957
0.00266987
0.00308142
0.00324421
0.00343225
0.00365444
0.00251666
0.00310833
0.0029947
0.00292959
0.00300541
0.00283029
0.00195383
0.00310869
0.00301528
0.00309312
0.0030618
0.00279146
0.00259772
0.00271035
0.00263148
0.00282892
0.00300496
0.00302411
0.00279132
0.00284011
0.00297032
0.00295809
0.00294825
0.00296977
0.00295071
0.00255371
0.00286794
0.00295603
0.0029153
0.00294772
0.00298618
0.00299482
0.00290931
0.00344417
0.00282317
0.002884
0.00270195
0.00296457
0.00280466
0.00291606
0.00284179
0.00288544
0.00293492
0.00283618
0.00289354
0.00280846
0.00282504
0.00288293
0.00295121
0.00294299
0.00295046
0.00311265
0.0026752
0.0024282
0.00323101
0.0030094
0.00325973
0.00322354
0.00235958
0.00274295
0.00281925
0.00281141
0.00326747
0.00270802
0.00343831
0.00313053
0.00222071
0.0027706
0.00270742
0.00283644
0.00201707
0.00207627
0.00250716
0.00148051
0.00328693
0.00346803
0.00284415
0.0040772
0.00337573
0.00324576
0.00327461
0.00320206
0.00310778
0.0032302
0.00369998
0.00307803
0.00358581
SCALARS CoVolArea double 1
LOOKUP_TABLE default
7345.36
7311.92
7293.85
7256.18
7534.43
7140.95
7160.6
7473.66
7333.21
7115.48
7398.35
7174.65
9357.08
9265.69
9262.91
9227.15
9438.5
9592.5
9621.67
9663.24
9757.55
9457.83
9218.64
9281.73
9522.35
9435.38
9375.06
9449.64
9424.31
9325.85
9654.15
9611.37
9367.82
9477.18
9726.67
9754.03
9429.42
9217.19
9194.49
9287.17
9315.97
9344.51
8951.11
9675.32
8863.59
8787.14
9648.94
8758.33
8749.55
9666.26
8781.16
9787.34
8940.59
8734.09
9707.47
8909.34
9771.45
8814.08
9947.58
9088.25
9031.76
9942.57
9156.09
10035.1
9139.87
10142.6
9086.88
9170.51
10159.1
9230.65
10202.4
9120.09
9962.17
9047.7
10037.6
9844.26
8823.66
9610.88
8881.47
8756.44
9617.06
8674.1
9576.47
8724.85
9785.97
8839.73
8929.35
9828.83
9113.88
9969.69
9193.29
9788.84
8894.59
8940.25
9834.64
8991.65
9823.72
8895.67
9962.42
8970.22
9146.62
9992.99
8706.86
9826.68
8845.47
10108.3
9151.97
9010.76
10073.7
9054.42
10112.3
9131.88
8927
9975.18
9041.8
8861.04
9877.25
8810.44
9287.62
10099.1
9165.17
10101.5
8960.48
9303.5
10268.3
8984.14
10117.1
9084.25
9695.85
8817.78
8853.4
9709.58
8681.02
9689.35
8692.04
9706.48
8841.22
8695.77
9676.69
8879
9734.19
8921.37
9744.64
8970.64
9742.36
9706.85
8744.28
9939.59
9770.2
9759.5
10035.2
10148
9951.55
9713.06
9752.1
9779.78
9901.6
9805.81
9967.25
9753.21
9915.58
9849.63
8827.97
8981.29
8769.48
9602.48
8939.25
8807.1
8739.6
8914.9
9581.41
8637.83
8839.73
8612.11
9550.39
8848.38
8698.42
8735.78
8839.08
9581.4
8602.05
8846.75
8613.25
9559.97
8858.2
8676.09
8704.42
8872.71
9565.5
10733.4
10728.2
10733.8
8990.4
8823.64
9625.44
8973
8859.36
9011.28
9732.53
8595.29
8832.69
9572.45
8859.28
8650.98
8868.04
9594.06
8784.08
8953.96
8725.41
9725.04
8990.91
8843.64
8696.96
8943.26
9596.84
10812.7
10800
10871.2
9110.31
8904.62
9800.83
9083.6
9030.73
9160.93
9901.38
8852.32
9067.29
9883.26
9135.38
8994.87
9064.89
9795.7
9008.34
9243.53
9000.45
9931.38
9243.08
9059.38
9035.92
9233.4
9912.71
11032
11073.1
11080.3
9169.36
8884.99
9990.02
9237.98
9114.8
9271.84
10091.6
9011.98
9252.91
10047.6
9298.69
9097.08
9286.25
10010.4
8976.23
9280.67
8944.79
10120.1
9378.15
9194.84
9059.33
9322.41
10048.8
11249.9
11278.9
11294.3
9114
10012.6
9204.16
9086.7
9745.78
8902.96
9219.8
9831.16
9186.27
8943.85
9314.84
10061.3
8880.37
8637.62
9724.56
8961.7
8818.34
9006.14
9786.31
11122.4
10995.4
10959.9
8920.55
8772.21
9529.1
8852.58
8740.69
8875.72
9539.21
8600.71
8825.5
9515.97
8838.46
8671.36
8826.27
9517.17
8539.3
8769.81
8567.74
9501.4
8762
8648.37
8643.63
8788.35
9492.46
10673.3
10661.1
10659.3
8893.83
8627.13
9632.85
8919.62
8804.27
8963.67
9727.08
8701.42
8931.31
9814.51
9026.01
8895.95
8937.97
9635.14
9020.18
9237.13
9068.3
9821.86
9189.75
8962.1
9028.06
9199.45
9859.13
10884.4
10996
10957.1
8917.35
8689.79
9694.21
8943.12
8850.17
8984.92
9726.69
8863.58
9085.37
9719.29
9036.55
8814.95
9095.85
9758.41
8816.25
9015.51
8747.28
9745.48
9046.04
8903.09
8808.15
9011.07
9712.18
10872.9
10889
10884.9
9128.84
8877.17
9920.74
9174.78
8821.97
9101.09
9744.26
9011.25
9257.61
9832.65
9220.31
8982.14
9252
9938.93
8564.47
8868.24
8679.32
9677.72
8907.2
8716.03
8772.69
8961.63
9729.18
11061.7
10995
10974.7
9234.15
9000.42
9970.38
9257.87
9060.32
9265.89
9989.01
8825.47
9104.56
10001.5
9203.15
9027.69
9183.42
9941.28
8865.49
9195.74
8886.78
9977.88
9248.03
9003.18
9090.28
9282.08
10019.1
11183
11207.3
11202
8762.03
9079.41
8817.56
9775.02
9092.87
8829.02
9053.76
9164.28
9966.59
8627.71
8928.18
8611.84
9796.51
9008.73
8847.99
8769.92
8981.51
9732.19
9119.11
9338.09
9058.18
10033.7
9348.87
9185.76
8983.88
9292.79
9901.92
11023.1
11076.6
11136
9108.19
8778.37
10055.7
9210.9
8859.34
9152.85
9882.67
9124.11
9401.07
10144.8
9431.81
9208.05
9422.63
10129.4
8817.78
9141.12
8865.65
9887.68
9171.59
8867.89
9091.82
9242.24
10078.8
11320.7
11328.2
11229.8
8953.97
8697.54
9700.77
8957.8
8692.75
8891.31
9503.85
8734.74
8984.57
9521.77
8915.49
8723.84
8976.22
9705.72
8561.23
8856.57
8567.99
9486.96
8833.96
8592.21
8605.84
8839.74
9499.3
10849.4
10750.1
10742.5
8915.72
8701.59
9578.58
8904.99
8749.27
8925.6
9621.6
8556.37
8745.51
9579.91
8847.97
8684.16
8814.48
9557.55
8796.23
8988.51
8815.14
9632.15
8951.09
8758.77
8782.59
8961.41
9617.16
10757.5
10766.7
10783
8953.06
9642.48
8946.18
8971.3
9657.06
8822.5
9012.46
9659.37
9006.77
8851.45
8960.5
9646.93
8827.96
8564.57
9633.68
8892.44
8720.92
8857.72
9606.15
10804.8
10788.8
10795.5
9222.87
9816.63
9172.42
9176.29
9804.39
8863
9581.63
8875.04
8965.61
9763.57
8876.75
9710.14
8946.99
8892.7
9595.73
10947.6
10842.4
10925.8
9128.68
10014.7
9212.79
9150.63
9846.27
9357.93
9958.39
9331.2
9377.45
10073.1
9004.99
9808.21
9056.78
9075.87
9857.31
11197.6
11147.8
11094.9
8758.09
9585.56
8836.23
8876.86
9622.48
8960.19
9676.51
8978.37
8948.75
9615.12
9044.45
9658.39
9007.89
9001.45
9685.01
10797.1
10831.4
10809.3
9067.73
9703.11
9047.03
9111.1
9862.49
8853.34
9713.01
8940.33
8886.47
9647.37
9246.21
9900.22
9229.29
9204.95
9817.02
10942
10972.3
11018.6
8802.69
9672.69
8919.37
8876.32
9636.37
9123.7
9940.73
9200.21
9088.74
9717.72
9034.36
9649.2
8994.88
9109.8
9904.67
10874.6
10994.2
10845.7
SCALARS SignedDistance double 1
LOOKUP_TABLE default
419.594
438.011
419.578
431.392
336.926
462.659
532.463
348.337
414.24
466.11
398.681
445.4
481.442
457.652
453.823
462.183
423.076
390.727
381.229
378.509
335.161
447.239
469.543
499.559
403.977
414.352
428.136
416.941
441.183
443.773
358.848
386.589
435.996
419.006
349.792
340.72
470.44
468.175
468.851
450.719
441.257
461.104
444.465
460.918
425.613
449.032
472.274
467.648
467.139
472.823
457.109
429.69
410.325
471.494
465.567
416.249
430.925
439.993
401.264
409.301
417.191
404.546
356.077
374.094
361.024
354.402
388.906
357.565
368.101
338.782
332.023
374.024
420.216
415.35
385.182
475.769
456.554
479.274
467.817
466.8
483.251
485.208
485.935
463.825
428.889
429.674
431.108
434.269
393.57
409.987
356.814
433.934
431.793
421.355
432.166
407.495
414.575
424.18
426.226
423.701
365.158
400.897
480.159
463.546
519.839
377.574
364.585
404.711
365.891
386.173
349.675
364.479
423.951
400.206
399.905
446.756
423.978
452.221
326.279
367.228
365.292
382.025
444.542
319.187
317.634
443.16
379.861
388.476
494.351
453.455
448.27
498.774
500.32
535.102
505.017
443.315
437.887
476.926
456.195
433.335
440.083
433.997
434.766
431.692
446.594
458.258
480.037
416.346
444.126
440.268
383.345
353.524
404.256
452.55
435.857
430.579
436.112
464.03
406.287
494.902
412.352
441.161
428.901
431.627
418.352
471.764
450.642
464.371
438.618
441.545
454.607
447.012
457.733
456.327
464.977
460.508
452.771
478.034
469.526
479.234
469.706
467.793
457.025
465.644
468.272
463.12
459.385
470.173
470.609
478.086
475.574
471.312
413.258
412.311
439.223
423.491
412.222
415.631
427.873
471.482
471.512
461.724
468.079
469.527
467.415
459.212
425.304
424.85
435.119
426.246
420.526
413.427
450.049
432.176
444.723
453.169
451.784
441.457
408.944
418.698
410.32
403.961
396.569
403.25
390.101
428.971
416.182
397.619
409.692
405.433
407.587
408.818
349.72
355.021
351.649
375.869
364.345
366.693
374.375
366.53
380.863
405.629
390.346
387.885
397.717
423.961
382.665
381.159
357.512
359.845
338.172
350.827
352.272
369.056
360.655
369.434
359.944
372.074
369.58
351.928
383.138
326.007
328.626
329.533
372.412
342.597
350.904
360.921
349.158
336.25
433.086
373.203
400.509
447.58
466.194
402.805
376.597
434.245
400.344
433.425
348.898
351.841
462.734
450.928
479.855
474.229
457.91
469.319
465.562
396.21
432.818
447.381
451.271
450.481
468.415
458.539
487.837
472.17
492.495
462.513
474.469
481.42
479.584
470.757
476.475
475.792
475.852
474.298
463.871
493.957
484.714
494.458
466.034
475.122
477.959
484.714
487.662
492.789
439.982
445.49
445.78
441.426
418.146
424.95
415.771
436.044
438.772
427.419
431.487
423.422
440.855
444.737
367.025
371.864
345.358
414.115
401.651
409.216
375.901
388.17
410.782
435.67
427.348
423.734
441.395
438.123
445.439
441.969
424.724
433.122
425.995
413.204
415.44
429.967
423.907
427.827
423.082
435.985
410.023
412.56
421.557
414.916
410.065
410.461
426.09
417.55
423.231
432.379
424.326
420.052
406.758
412.469
404.97
402.199
433.959
424.631
436.178
352.555
358.925
419.26
382.125
400.551
369.355
388.108
511.156
507.214
529.266
452.959
474.398
457.191
483.984
495.302
469.186
428.115
445.6
440.153
358.714
354.369
383.035
369.233
379.922
370.834
377.203
435.761
407.514
356.5
374.326
377.719
388.216
386.559
397.989
369.332
387.678
363.323
360.573
382.023
355.322
351.376
347.6
368.092
351.448
359.568
425.064
411.807
418.339
420.823
414.036
427.808
369.471
395.007
373.533
456.004
450.839
460.835
419.525
438.954
439.821
444.629
441.341
431.325
325.997
341.761
349.371
354.618
344.553
335.115
390.185
362.114
387.901
410.325
397.982
382.157
418.105
436.02
355.718
387.835
457.529
418.978
422.929
321.711
312.97
325.125
312.634
326.528
316.319
330.831
429.719
412.771
410.365
425.068
415.931
458.807
360.195
380.883
350.184
340.999
337.996
379.446
452.941
444.013
494.09
470.262
460.355
467.79
482.157
434.87
448.522
484.69
466.571
457.724
472.677
498.48
517.432
534.586
524.918
501.249
518.871
483.664
486.437
524.77
505.423
527.622
523.506
517.848
443.157
435.18
452.744
447.578
439.854
440.862
439.674
504.194
488.38
452.377
464.67
460.539
471.281
461.686
425.39
431.83
423.919
439.511
437.632
439.897
443.819
439.208
443.719
448.358
445.224
441.173
429.314
441.603
434.696
429.174
435.3
419.493
428.654
449.777
436.934
446.869
436.716
445.09
464.578
474.695
446.982
453.906
478.27
467.135
469.38
446.991
459.194
443.587
375.316
422.755
396.246
405.305
416.88
453.367
456.19
453.42
444.443
438.1
446.099
422.626
431.528
452.248
457.929
435.512
446.451
434.431
401.573
360.638
381.127
398.827
402.729
334.264
372.401
350.845
334.435
342.777
432.021
411.512
420.629
418.003
401.341
366.118
380.104
391.262
492.372
459.371
471.255
462.812
447.464
433.632
429.364
431.103
441.414
448.385
420.745
435.549
428.962
426.569
428.691
442.73
432.596
438.413
418.526
445.895
435.145
411.734
411.478
500.985
471.084
491.644
472.843
458.019
362.262
398.023
375.405
385.252
422.096
447.626
449.147
435.49
484.515
479.91
490.936
494.058
498.7
396.496
378.775
376.939
421.201
453.019
448.517
485.08
465.681
419.557
396.311
457.39
421.204
469.169
