# vtk DataFile Version 4.2
vtk output
ASCII
DATASET POLYDATA
POINTS 642 double
-212.03 316.592 91.1486
203.361 305.908 82.5528
-221.687 -376.512 116.433
210.552 -370.587 119.736
-3.53661 -306.606 494.343
-4.582 136.018 431.466
0.794645 -237.219 -175.808
-1.95142 213.921 -297.459
351.827 13.4068 -124.706
304.55 -47.2762 304.985
-366.941 15.039 -128.46
-323.035 -49.0795 308.334
-279.392 163.473 190.194
-185.151 61.8944 411.708
-122.918 288.505 260.695
112.354 285.648 258.793
-0.378098 369.26 81.0772
130.907 308.158 -136.806
-133.2 314.187 -139.77
-230.551 117.044 -246.629
-391.516 205.026 -64.4258
-386.199 -32.9074 66.9702
179.638 58.3306 404.241
270.689 147.438 189.091
-189.199 -212.273 443.257
-2.11306 -40.9893 507.348
-322.388 -234.771 -22.1135
-320.359 -251.348 229.092
-4.59646 33.7505 -312.126
-205.073 -147.107 -211.123
372.611 197.753 -61.3163
224.944 117.41 -247.366
305.474 -246.715 224.38
176.654 -209.886 436.221
123.617 -414.094 343.966
-129.038 -417.841 348.197
-2.63942 -421.24 178.566
-153.907 -326.896 -82.5631
145.189 -327.154 -82.7999
200.682 -147.637 -204.097
311.715 -229.238 -24.0876
374.99 -30.4521 62.0359
-261.88 257.321 136.445
-211.525 253.501 230.837
-170.378 324.538 185.668
-265.998 12.1606 370.504
-253.21 103.335 321.784
-315.307 44.8421 270.523
-63.6095 224.844 351.02
-146.954 184.547 347.379
-84.7989 105.863 442.051
-83.4165 351.664 183.693
-109.635 365.974 91.7816
55.5705 223.807 348.701
-0.700317 288.762 275.079
101.951 364.298 88.1916
73.7814 350.923 184.3
158.071 318.137 183.497
-68.5006 365.449 -25.5482
-200.65 312.213 -35.5496
193.969 307.212 -31.2797
63.6422 364 -22.4357
-70.5107 280.54 -233.015
-2.82663 336.001 -153.362
64.0811 278.362 -231.433
-295.595 273.644 -101.843
-325.998 258.582 -31.789
-111.498 171.746 -298.425
-198.05 233.153 -209.257
-408.635 116.131 -108.301
-340.612 170.997 -177.742
-326.223 83.4093 -200.113
-368.837 187.532 21.8562
-393.69 12.1556 -42.917
-415.03 118.059 -31.6663
-352.542 80.2921 101.449
-360.115 -59.902 205.783
194.468 245.73 228.694
248.08 249.253 121.192
75.8627 104.309 435.807
139.281 180.008 343.175
299.589 45.3434 267.432
243.535 99.2548 316.429
254.497 8.80895 365.252
-88.0833 22.3508 485.783
-4.64146 56.117 487.877
-270.412 -117.484 377.388
-204.789 -44.5519 434.784
-1.75531 -194.71 500.892
-99.921 -137.349 491.22
-113.045 -258.74 490.915
-370.757 -151.68 161.1
-335.42 -151.006 273.444
-352.853 -125.992 -79.643
-374.444 -134.39 28.1612
-283.981 -329.092 174.214
-345.109 -255.369 104.756
-285.184 -314.407 48.6684
-228.913 1.94658 -236.381
-294.782 -77.1489 -175.765
-2.47605 111.131 -339.083
-99.0327 91.781 -313.21
-146.643 -185.102 -207.479
-122.584 -60.0145 -263.195
4.44267 -58.0986 -232.835
190.32 224.483 -203.628
106.097 169.162 -295.279
309.562 253.936 -26.3983
281.316 269.746 -99.4953
315.508 76.8923 -195.408
325.894 167.468 -170.863
388.419 108.098 -102.659
271.084 -321.828 174.164
221.215 -341.036 297.94
161.56 -404.731 250.548
259.79 -108.993 370.886
256.327 -230.717 347.573
320.04 -148.112 266.421
61.6965 -377.048 438.684
165.079 -315.51 419.05
105.141 -257.31 486.758
57.8253 -454.56 266.478
110.209 -413.739 141.031
-68.0614 -379.956 442.33
-2.84916 -450.291 364.548
-116.844 -414.904 144.146
-63.1582 -457.408 266.944
-170.311 -411.004 251.585
117.219 -367.06 26.0266
175.889 -359.35 5.80844
-182.187 -366.125 8.07591
-122.629 -365.509 27.0228
120.093 -270.832 -140.483
0.850157 -277.994 -77.8478
-124.378 -269.407 -140.158
234.745 -296.18 -62.5285
274.061 -307.386 45.2351
132.3 -186.192 -208.338
172.868 -253.951 -159.722
343.32 -123.519 -76.6451
272.372 -195.145 -128.272
288.572 -76.6568 -170.356
328.837 -249.904 103.597
379.081 5.90341 -37.1175
364.904 -128.347 17.9646
349.924 -150.473 163.731
341.11 -60.5885 199.848
91.0813 -136.871 488.97
198.384 -45.1506 429.557
79.1345 20.8746 479.142
-234.603 -346.284 302.56
-175.241 -318.968 423.682
-270.923 -232.781 355.594
-177.799 -256.74 -164.284
-241.093 -299.666 -63.8709
-280.062 -197.098 -131.814
225.75 5.59122 -226.361
111.7 -66.0545 -262.29
92.2223 96.1448 -310.673
336.573 70.4717 98.9443
391.594 109.819 -31.4122
348.149 184.152 21.5319
-240.592 289.971 113.515
-216.017 297.774 168.728
-189.78 327.557 144.356
-244.463 218.006 213.809
-235.194 261.727 191.75
-273.189 223.848 154.599
-148.405 313.223 222.312
-194.394 291.818 210.404
-169.559 276.523 247.444
-297.041 -17.7216 341.657
-295.312 29.3188 322.725
-322.294 -1.17183 291.156
-226.569 82.5868 368.334
-261.98 58.7171 349.527
-230.765 38.0999 392.417
-303.23 91.611 241.404
-286.659 75.889 299.1
-269.163 128.738 265.868
-32.6626 179.765 388.29
-72.2899 163.111 395.222
-45.7063 122.534 441.582
-132.226 240.829 307.024
-105.005 209.98 351.035
-92.0621 255.734 310.994
-131.497 84.9581 430.48
-118.357 141.87 391.62
-167.358 116.224 384.409
-226.781 179.301 271.63
-200.979 144.106 335.255
-178.765 220.753 289.291
-146.455 350.587 144.65
-160.825 347.742 95.9745
-107.38 327.835 221.225
-125.979 343.439 187.331
-68.3095 376.263 84.553
-99.2185 363.87 140.638
-49.5595 363.487 134.459
24.9523 180.176 387.633
-3.1771 224.78 352.5
63.3256 290.174 269.197
31.0964 257.72 317.548
83.1521 253.965 307.733
-37.195 257.175 318.557
-71.7671 289.774 272.27
147.617 342.453 90.7476
135.126 345.446 141.849
177.199 319.752 141.924
44.5707 365.277 134.995
88.8022 361.981 138.351
63.2428 375.228 84.8632
136.797 308.353 219.968
115.417 339.198 186.343
95.8182 325.576 220.434
-44.3018 324.825 224.255
40.6958 326.725 225.512
0.285904 347.988 182.876
-142.173 354.145 36.1137
-206.546 313.683 23.5617
-41.4334 376.454 30.6837
-89.541 372.83 35.0006
-167.87 316.377 -86.7132
-119.894 351.482 -26.3887
-98.4977 347.209 -85.8567
201.191 307.637 18.5657
135.371 351.148 34.1366
92.7115 342.462 -83.3323
117.04 348.315 -22.2367
166.999 308.005 -86.7882
85.2181 370.926 36.9279
37.5312 377.737 31.5764
-36.3034 250.951 -269.542
-2.1827 283.627 -237.899
31.4927 250.207 -268.978
-66.0864 330.121 -149.798
-36.2887 311.794 -195.457
-102.004 302.132 -189.964
94.914 298.357 -187.39
30.8432 310.885 -195.122
59.6212 327.394 -149.225
-3.10858 367.654 -27.0929
29.6657 354.273 -92.5766
-36.4884 355.912 -92.9102
-277.872 288.504 -42.1562
-265.478 270.805 11.153
-223.518 279.576 -113.152
-264.406 296.443 -72.3096
-360.327 238.053 -45.2929
-316.28 274.9 -60.9008
-348.367 247.717 -83.8766
-56.9319 195.881 -302.115
-91.9567 232.178 -271.607
-218.035 174.581 -233.297
-147.387 206.434 -263.453
-163.867 143.652 -287.014
-126.848 260.984 -230.389
-168.715 277.03 -180.48
-390.691 77.8145 -122.533
-372.028 101.566 -160.727
-353.032 52.7966 -167.716
-372.587 191.779 -121.802
-382.76 142.022 -148.796
-411.052 155.967 -87.3785
-294.151 104.179 -223.597
-340.89 125.532 -196.523
-303.726 146.242 -216.441
-259.871 254.285 -161.901
-285.894 206.889 -193.52
-320.908 230.096 -145.193
-291.731 243.025 43.7744
-383.379 200.029 -22.209
-354.112 223.919 -3.93889
-311.711 209.883 65.4339
-322.351 174.672 83.0505
-386.003 14.1858 -84.6429
-411.568 82.2513 -75.4403
-397.269 71.6783 -1.6131
-411.101 85.3246 -40.0313
-391.361 -3.01298 10.0124
-424.846 119.555 -62.0069
-417.07 151.474 -45.7534
-340.43 -3.11475 243.705
-344.414 -52.4841 260.289
-325.404 109.416 146.498
-332.371 49.5195 210.784
-372.641 -54.3095 140.662
-354.339 1.11945 175.345
-371.965 26.8183 75.9856
-400.576 151.215 -1.70066
-393.568 113.517 17.6061
-373.803 143.02 44.1306
201.177 290.019 164.807
231.583 278.949 101.704
156.466 270.781 244.602
180.073 285.614 206.581
257.461 208.579 141.097
216.774 256.682 186.363
226.215 203.156 213.141
35.871 121.964 438.353
64.1637 163.063 391.466
160.947 113.778 377.834
111.841 140.911 385.669
125.447 82.8983 421.681
97.1784 207.181 347.332
122.699 236.558 304.055
304.245 0.551752 288.391
281.501 27.6843 317.925
282.164 -17.1303 338.277
259.952 119.385 265.557
274.59 73.878 293.996
289.501 87.5402 240.971
221.258 33.8351 386.647
251.007 55.7674 343.365
217.318 79.3224 361.955
168.593 213.067 287.539
192.769 139.18 331.241
215.576 168.351 273.735
-46.3775 83.4256 470.989
-4.91989 96.2002 464.883
-133.345 43.666 452.99
-88.199 64.0829 468.381
-4.54576 13.2835 502.564
-48.0537 39.1017 492.401
-47.8008 -4.7322 503.382
-303.722 -75.8663 343.152
-274.273 -45.0313 375.926
-199.131 -126.579 434.215
-241.479 -79.1169 408.7
-232.672 -166.602 405.846
-238.69 -15.1987 405.409
-198.615 11.0383 426.468
-2.09759 -256.439 499.413
-62.2951 -236.319 500.152
-57.5236 -285.693 495.135
-48.7162 -81.8307 502.157
-57.5974 -164.479 499.791
-0.902306 -108.822 507.534
-151.961 -239.282 473.259
-109.416 -214.72 491.082
-141.488 -188.931 469.59
-145.099 -11.5763 461.5
-147.353 -87.8349 466.556
-92.7921 -42.7796 491.604
-355.346 -101.32 238.825
-333.682 -97.3251 291.082
-377.436 -101.23 124.82
-372.552 -104.501 185.925
-329.407 -203.24 254.477
-358.163 -149.074 216.659
-351.476 -201.32 190.945
-360.285 -62.732 -103.463
-378.718 -66.8345 -57.8762
-352.102 -185.468 3.35245
-370.142 -129.202 -32.7141
-337.744 -178.996 -54.3002
-387.528 -76.2061 -8.67365
-387.688 -88.2396 49.7081
-255.82 -356.472 145.481
-291.273 -325.976 109.192
-257.013 -348.372 82.8854
-339.189 -256.318 159.568
-320.26 -293.09 135.451
-305.526 -293.219 202.004
-306.987 -276.629 12.4517
-319.317 -287.959 77.6377
-337.443 -249.056 46.8909
-376.767 -152.999 95.7038
-364.563 -203.161 73.8538
-366.083 -208.144 129.579
-312.991 12.471 -189.096
-331.737 -31.0028 -154.591
-236.065 77.0046 -244.934
-285.357 49.2986 -219.472
-250.135 -116.306 -195.27
-267.186 -37.4498 -206.526
-216.072 -80.7477 -227.579
-2.19746 157.402 -324.57
-55.6387 139.011 -327.798
-44.4997 62.7731 -318.592
-50.4728 99.2234 -330.265
-3.20496 79.8789 -328.606
-111.88 121.097 -317.116
-159.396 108.886 -293.249
-111.88 -197.923 -192.325
-109.051 -141.073 -219.941
1.98734 -151.084 -193.167
-163.203 -113.372 -241.579
-140.616 -127.954 -233.571
-166.119 -172.332 -218.326
-2.65706 3.80022 -290.335
-93.0837 -49.9869 -259.696
-51.4348 1.05671 -291.439
-157.254 56.5669 -269.912
-96.3148 16.2347 -288.248
[...]
POINT_DATA 642
SCALARS Mean_Curvature double 1
LOOKUP_TABLE default
0.00642041
0.00415055
0.00689061
0.00608157
0.0115807
0.00474585
0.031857
0.00764388
0.00238513
0.00658241
0.00422966
0.00652584
-0.00241358
0.0039515
0.00398924
0.00486498
-0.00284355
0.00389374
0.00397913
0.00230062
0.015693
0.00658639
0.00438346
-6.70487e-05
0.00339355
0.00534004
0.00481962
0.00355525
0.0113321
0.00347095
0.0164896
0.00891465
0.0037668
0.00287518
0.00567285
0.00546799
-0.0020692
0.0160722
0.0196315
0.00397232
0.0052586
0.00887945
0.00646368
0.00580378
0.00872872
0.00634918
0.00498745
0.00506299
0.00708857
0.00429863
0.00598709
0.00875137
0.00371078
0.00682063
0.000412365
0.00543909
0.0100526
0.00868408
0.0040991
-0.00140892
-0.00122005
0.00381709
0.00658085
0.0065488
0.00659767
0.00852912
0.00522939
0.00482885
0.00193252
0.0138251
0.00758114
0.00500238
0.00888151
0.00269952
0.00964015
-0.0013949
0.0019032
0.00509065
0.00560424
0.00438851
0.00415505
0.00614814
0.00532914
0.00624433
0.00833165
0.00800041
0.00294304
0.00556483
0.000744398
0.00524918
0.0126259
0.00416396
0.00440493
0.00600308
0.00130446
0.00524838
0.00766049
0.00452463
0.0012209
0.00450493
0.0199385
0.00369578
0.00224861
0.0154257
-0.00749307
-0.000588616
0.00456398
0.00528415
0.0075503
0.00805878
0.00835955
0.0112506
0.00491775
0.00422868
0.00220157
0.00473993
0.00659255
0.00501454
0.00642495
0.00738236
0.0126792
0.00744484
0.010242
0.00773048
0.00817585
0.00900223
0.00821282
0.0038884
-0.002607
0.00640595
0.0102889
-0.00275586
-0.00202867
-0.0178777
-0.00193089
0.00637095
0.00465243
0.0124265
0.00973543
0.00626877
0.00617313
0.00578676
0.00774117
0.00313301
0.00657626
0.00435737
0.00218979
0.00549241
0.00720112
0.00691351
0.0050075
0.00664632
0.0058155
0.0149366
0.0055356
0.0060552
-0.000446743
0.0201489
0.00310342
-0.00273594
0.00478565
0.00843389
0.00586165
0.00790448
0.00843664
0.00332604
0.00865966
0.0043285
0.00868486
0.00864739
0.0054228
0.00544361
0.00587915
0.00562366
0.00547202
0.00626514
0.00619732
0.00303879
0.00550607
0.00314754
0.00141278
0.00245352
0.00708693
0.00481064
0.00632794
0.00600628
0.0032731
0.00018922
0.00238913
0.00028252
0.00175482
0.00286003
0.00924519
0.00507929
0.00849534
0.00981459
0.010274
0.00982048
0.00124677
0.00283199
0.00351762
0.0027732
0.00552213
0.00527616
0.00414022
0.00280902
0.00290789
0.0086766
0.00759745
0.00426863
0.00855761
0.0101062
0.00844844
0.0092149
0.00860313
0.00131204
0.00445086
0.00258063
0.00526356
0.00128755
0.00532485
0.00791808
0.00289499
0.00267737
0.0060248
0.00134491
0.00650198
0.00441569
0.00332556
-0.000946402
0.00774436
0.0076635
0.00674731
0.00628093
0.0073652
0.00403008
0.0052926
0.00649553
0.00568368
0.00595112
0.00395584
0.00168225
0.00518429
0.00544253
0.0086739
-0.0053087
-0.00651619
0.0159048
0.0141065
0.0187326
0.0118048
0.00527331
0.00679004
-0.000538187
0.00518927
0.00858098
0.00598324
0.00450382
0.00451204
0.00820703
0.00651792
0.00611622
0.0131995
0.0123643
0.00803314
0.0147113
0.0103712
0.00891048
0.00764193
0.007314
0.000176337
0.00810758
0.00702913
0.00108683
-0.0033761
0.00324588
0.00962637
0.000674286
0.0084553
0.00156595
0.026843
0.0166449
0.00453641
0.00505314
0.000905063
0.00308279
0.00185193
0.00101286
-0.00171539
0.0120813
0.00552928
0.00693865
0.00729586
0.0057108
0.00490669
0.00865503
-0.00184522
0.00784569
-0.000699147
0.00635079
0.00217686
0.0027715
0.000558114
0.00261358
0.00591804
0.00443911
0.00536471
0.00592149
0.00670132
0.00410222
0.00639375
0.00426436
0.00579347
0.00609276
0.00533296
0.00294586
0.00241624
0.00159095
0.00900104
0.00738944
0.00475862
0.0076207
0.00880234
0.00943352
0.00922548
0.0068394
0.00537241
0.000931097
0.00538495
0.000207115
0.00647726
0.00512507
0.0023335
0.0051861
0.00780753
0.00253392
0.00224997
0.00497769
0.0113038
0.00743859
-0.00146567
0.00269432
0.0019707
0.00511142
0.00550626
0.00563304
0.00171042
0.00936353
0.00306092
0.00498068
0.0030252
0.00473832
0.00505702
0.00128925
0.0076099
0.00304581
0.0062936
0.00615634
0.00549718
0.00761636
0.00599931
0.00593111
0.00712176
0.00395988
0.00466107
0.00637299
0.00507071
0.00480481
0.00654554
0.00910878
0.00333467
0.00252501
0.00350791
0.00487558
0.00317369
0.00185629
0.00367844
0.00543975
0.00974918
0.00381548
0.0131919
0.00632403
0.0170969
0.0126341
0.00114303
-7.66574e-05
-0.00555102
0.0113635
0.00452956
0.0190574
0.00225246
-0.00469342
0.0100238
-0.00489778
0.00201738
0.00653814
0.00634601
0.00549976
0.00308447
0.00559503
0.00980915
0.00526177
-0.00225505
-0.00112976
0.00889557
0.0129221
0.0174277
0.0123546
0.0106551
0.00605218
0.00594951
0.0119148
0.0067987
0.00986611
0.0105769
0.00993789
0.0143333
0.00891224
0.00626315
0.00861645
0.00703396
0.00773603
0.00432178
0.0065541
0.00436439
0.00405915
0.00518119
0.00484075
0.0119631
0.00409825
0.00806268
0.00495905
0.00391491
0.00402861
0.00548598
0.00270926
-0.000124642
0.00332078
0.00376526
0.00421868
0.00803014
0.00587539
0.00792998
0.00674087
0.00659242
0.00557927
0.00991899
0.0101545
0.00800633
0.00435715
0.00458132
0.0054409
0.00411261
0.00387802
0.0117144
0.00497674
0.00466598
0.00608232
0.00424959
0.00894655
0.00840997
0.00626977
0.00840449
0.00616022
0.00887924
0.00551407
0.00563595
0.00426232
0.00208149
0.00112279
0.00836718
0.00367878
0.00973886
0.00630157
0.0102471
0.0147207
0.0172129
0.005824
0.0125044
0.00248465
-0.0021338
0.00735377
0.0168539
0.016373
0.00549957
0.0043275
0.014325
0.00189954
0.0111878
0.0184378
0.00151346
-0.00169859
-0.00491087
-0.0175274
-0.00356298
-0.00195714
0.0172182
0.00711933
0.00225309
0.0169824
-0.00186087
-0.00806447
0.00653465
0.00616903
0.00381691
0.00549182
0.00682479
0.00461497
0.00468711
0.00600549
0.0066925
0.00146022
0.00601857
0.00614123
0.0155182
0.0106986
0.0154693
0.0171508
0.00561358
0.0057845
0.00381824
0.00548494
0.00408648
0.00386524
0.0019747
0.003907
0.00643742
0.00483106
0.00590798
0.00639433
0.00675939
0.0039333
0.0067634
0.00695178
0.00564713
0.00175664
0.00568498
0.00707874
0.00683687
0.00308435
0.00824954
0.000555974
0.00650973
0.00264602
0.00315019
0.0073784
0.00170213
0.0068235
0.000143339
0.00675856
-0.00140823
0.00881998
0.00793808
-0.00206374
0.00599727
0.00243497
0.00693652
0.00691665
0.00559029
0.00702265
0.00558032
0.00254257
0.0087437
0.00900632
0.00948457
0.00639664
0.00277911
0.00287293
0.00397574
0.000491929
0.00439635
0.00714633
0.00505146
0.00498261
0.00428626
0.00592617
0.0099664
0.00808721
0.00635184
0.00644232
0.00264002
0.00433375
0.00417533
0.00631527
0.00589621
0.00604223
0.00516449
0.00472798
0.00209871
0.0202782
0.00911602
0.0191097
0.00849093
0.00274074
0.00625165
0.00507869
0.00360412
0.010437
0.00534264
0.00521684
0.00412424
0.00420558
0.00548122
0.00457064
0.00613326
0.00480735
0.00291985
0.00363722
0.00242114
0.00495896
0.00447488
5.45555e-05
0.00841511
-0.00374708
0.0125446
0.00684691
0.00974505
0.0113849
0.0198914
0.0137434
0.00328118
0.00371895
3.88033e-05
-0.00483208
0.00410763
0.00223269
-5.62757e-05
0.00268968
0.00066246
0.0107724
0.0153261
0.0241174
0.00895596
0.000671333
0.00346022
-0.00248416
0.00225089
0.00714804
0.00748647
0.00424063
0.0100139
0.00555232
SCALARS CoVolArea double 1
LOOKUP_TABLE default
3292.5
3330.57
2692.54
2646.52
2477.25
2344.34
4653.77
2762.1
2902.62
2144.29
3043.95
2125.47
6014.64
3212.99
2785.17
2711.38
3861.93
4252.35
4385.07
3678.68
2742.65
4444.29
3165.25
5804.36
3467.91
3005.65
3470.36
3768.28
2354.49
3194
2377.84
3113.87
3497.94
3600.56
3480.02
3659.21
4502.5
1524.66
1508.36
3201.92
3316.04
3569.35
3463.2
3061.83
2139.48
2507.48
3516.97
2805.83
2960.14
3891.96
2769.49
2947.26
2723.43
2912.58
4122.13
2550.44
2705.62
2087.1
3683.08
4616.31
4348.37
3801.11
3304.26
3676.13
3228.35
3313.71
2706.1
3415.24
4882.51
2207.14
3393.32
2646.07
2821.14
3654.56
1644.45
5597.49
3266.14
3157.11
3473.54
2922.3
3728.24
2511.7
3163.63
2315.69
2790
2055.98
3597.34
3911.81
4217.23
4336.07
2628.83
3260.2
3328.85
3186.42
3719.5
3330.52
2816.7
2983.51
5421.45
3735.2
2156.08
3205.11
1685.96
2875.21
9161.95
5110.42
3405.96
2268.93
2994.65
2413.73
3257.71
2233.48
3130.62
3628.77
3262.09
3444.57
3448.49
2992.38
3484.83
3369.68
2461.39
2713.02
3019.86
3454.57
3438.35
2979.69
2692.06
3373.93
4753.99
2868.27
2746.46
5325.65
2876.79
7194.12
3141.29
2847.51
2886.26
1569.93
2436.43
2904.9
3053.08
3529.69
2754.14
3424.46
3201.18
3487.45
3452.01
4285.53
3368.71
3042.82
3703.83
3612.35
3519.33
2315.31
3098.99
3191.78
5331.62
3060.21
3313.32
5667.65
1839.22
2553.03
3744.09
2515.23
2585.79
3934.35
2479.9
4070.98
2100.05
2129.06
2861.93
2514.75
2549.84
2573.53
3208.75
2466.3
2513.67
4349.45
2775.19
4273.84
3243.66
3191.03
2540.64
3199.58
3043.09
2746.42
3060.32
3546.12
3869.43
4632.25
4636.52
4325.56
2420.87
3437.3
2644.58
2057.5
2853.56
2387.25
3831.61
3214.76
3221.09
3231.66
3161.07
2702.9
3254.75
3535.28
3508.31
2461.39
2799.95
3633.93
2332.89
2650.06
2051.63
2076.42
2446.29
4130.26
3791.03
4132.34
4236.83
4618.82
3626.79
3003.22
4581.92
4310.73
4177.85
4269.86
3833.94
4460.19
4301.33
4568.27
2831.34
3572.32
3233.94
3317.33
3175.67
3787.94
3344.87
3500.36
3531.95
3293.89
3870.13
4349.88
4358.33
4270.38
3055.37
4334.58
4574.19
3080.6
1915.88
1900.78
3085.57
3420.48
3407.46
5162.26
4275.31
3609.15
3818.44
4644.59
2849.11
2466.79
3179.37
3735.85
2847.93
2570.83
2601.5
2368.05
3629.43
4636.51
4587.6
4043.46
4184.39
2251.98
2798.98
3722.19
5265.38
3559.61
2491.01
3466.54
2316.74
3934.8
1543.21
2033.98
3254.4
2706.76
6140.31
4588.37
4273.19
5298.22
5640.58
2196.04
3449.83
3940.75
2545.63
3436.83
2812.75
2053.66
4715.12
2925.24
4502.26
2584.91
3226.93
3706.73
3552.56
3203.65
3019.3
3165.18
2489.22
2331.65
2308.64
3943.79
2402.63
3667.91
2379.8
2352.6
3042.94
4166.95
4254.67
4401.74
2110.55
2095.71
3096.76
2276.73
2161
2064.18
2797.08
2969.35
2899.07
4841.39
3541.9
3715.74
2707.08
3182.56
3148.85
3255.24
2976.14
3895.57
4086.72
3975.92
2302.56
2839.22
4120.3
4121.03
5334.85
4248.37
2775.46
2918.48
3711.57
2851.81
3503.58
3104.05
3596.77
3765.61
3543.9
3927.82
3311.19
3243.43
3794.34
4006.17
3187.88
2823.15
2848.7
3266.31
2836.91
3375.68
2975.68
2734.1
3377.52
3720.67
3671.25
3339.85
3598.53
3814.16
4156.37
3626.78
3469.5
4123.05
4216.66
3209.72
2939.5
2770.92
1976.26
1818.29
2418.93
3184.79
4533.1
6053.25
9227.07
2952.87
2166.74
1900.22
4005.15
4735.56
2821.98
5713.97
4634.08
5174.8
3385.63
3368.99
4497.26
3991.39
3291.7
4256.34
4674.66
3638.48
2802.41
2916
1898.72
1845.82
2974.61
3823.54
2827.55
2354.17
2579.09
3373.25
2466.12
2440.35
2390.54
2853.21
3390.98
4392.11
3870.1
4482.36
3071.13
3441.67
3517.1
3761.3
3386.43
3093.65
2693.06
3132.27
3327.47
2735.89
3364.42
2791.55
3447.78
3540.08
3955.7
3215.51
3270.97
3635.38
3230.34
3385.44
2971.59
3612.68
3426.12
3527.23
2290.47
2777.36
2889.06
4154.1
3815.48
3990.25
3646.53
3471.03
3093.04
2826.57
3098.52
3048.18
3286.11
3146.48
3346.59
3714.16
3457.11
3535.84
3454.8
3709.45
3503.87
3661.93
3837.66
3228.46
2936.71
3194.6
2932.06
2860.98
3219.18
3154.16
3132.55
2853.95
2804.19
3202.54
7118.29
2475.49
2006.78
1938.78
2007.79
3041.52
2597.4
2292.23
1963.85
1929.51
2799.04
7501.45
3697.64
6072.92
3855.27
3288.96
4465.15
1408.81
1605.31
4644.78
3589.75
10157.5
7413.47
7122.67
3137
2941.03
2538.2
2773.91
2831.66
2813.11
2922.43
4098.49
1667.01
2748.39
1734.74
2162.19
1385
2014.28
3534.18
3272.87
3557.09
3113.49
2989.46
3012.15
3376.55
3136.05
3085.08
3196.19
3231.56
3246.05
2826.35
3295.64
2681.34
2689.05
3006
3434.96
3312.72
3575.98
3115.28
3260.17
2765.99
3553.17
2565.18
2821.98
3250.39
2696.9
3838.22
2855.03
3888.16
3654.26
4217.56
3454.08
3075.12
4135.63
2759.14
3790.67
3615.43
2525.9
2949.13
2348.34
3200.35
4504.18
2146.5
2809.36
2090.72
2432.06
3224.14
5082.1
4111.92
4451.79
3663.39
3565.88
3262.12
3542.87
3897.1
3420.46
3060.55
3003.74
3551.9
3788.54
3561.48
3784.35
3351.59
3328.85
3345.78
4147.51
4041.94
4257.33
1880.13
1869.12
1356.62
1500.67
2780.67
3288.32
3147.3
3094.64
2979.9
2527.58
3564.78
3287.44
3262.83
3133.58
3297.78
3275.88
3451.67
3446.57
3325.61
4288.7
3916.86
3289.48
3802.6
5166.4
2859.61
3856.28
1971.36
3233.16
2876.4
2950.76
2281.26
1856.08
2941.06
5693.27
5290.33
6033.49
3352.97
4832.11
5143.82
4458.09
5762.83
2312.94
1840.91
1540.68
2193.61
3094.42
3306.37
4960.38
3405.57
2393.86
2070.51
3590.69
2257.68
3992.46
SCALARS SignedDistance double 1
LOOKUP_TABLE default
138.65
151.531
137.512
139.11
122.075
154.142
248.631
111.188
136.795
151.571
133.01
143.923
158.177
148.557
150.211
152.701
139.541
130.484
125.938
150.044
126.147
149.84
151.569
162.158
138.382
135.708
136.682
134.488
173.186
149.023
135.24
153.801
141.615
142.982
113.326
110.268
190.712
175.581
172.808
147
141.502
153.721
151.623
153.906
136.618
143.638
151.284
151.058
149.886
151.948
149.478
142.756
134.438
149.892
151.306
135.558
141.295
142.333
135.452
141.302
148.829
133.791
113.454
122.296
115.609
125.105
140.368
115.825
124.779
124.903
105.773
126.688
154.335
144.572
150.08
159.644
149.574
160.914
165.661
153.406
155.18
156.362
155.139
148.781
139.237
140.444
137.863
139.496
130.804
132.99
129.268
142.797
138.978
134.468
143.36
128.688
132.382
135.4
144.462
136.692
144.762
148.247
177.152
176.796
210.703
131.41
117.937
146.524
124.015
132.252
110.093
128.502
135.736
131.184
131.573
143.311
139.482
146.797
105.443
123.494
132.815
147.075
169.031
101.706
106.514
172.496
152.521
131.132
176.076
156.887
164.592
182.724
175.344
230.212
182.391
139.916
138.905
171.808
158.254
138.019
138.71
139.631
139.367
149.339
146.632
153.357
156.634
135.638
143.026
144.829
124.672
116.202
131.166
167.313
138.802
135.755
144.964
175.283
146.503
166.344
153.449
159.835
144.398
139.598
132.996
162.045
149.627
161.462
142.733
144.15
150.02
143.794
147.195
147.497
148.758
147.286
144.976
154.508
150.714
155.381
156.869
155.59
150.543
148.559
148.679
147.387
150.47
155.63
154.202
156.132
154.701
152.417
131.058
131.615
145.481
137.198
139.856
136.373
139.423
156.968
151.098
152.643
149.396
150.272
149.545
151.335
137.391
134.854
140.494
140.83
133.956
138.186
146.528
139.15
144.745
150.015
153.088
144.043
131.527
143.989
141.408
129.85
132.312
130.069
125.322
154.693
135.235
128.288
133.558
139.257
130.343
139.261
110.818
113.874
111.381
122.413
118.485
118.255
121.218
119.665
123.953
137.98
126.591
126.964
151.348
153.17
141.101
149.674
134.376
138.048
120.019
113.399
111.168
129.394
115.272
129.221
114.515
122.464
124.922
121.488
128.581
101.185
111.655
116.558
132.278
123.457
123.922
134.525
121.982
108.48
160.08
138.994
145.307
164.007
163.463
136.253
137.652
152.903
147.523
148.667
145.46
138.29
150.44
147.389
155.685
153.684
151.866
154.49
158.342
150.494
159.701
164.685
148.064
160.137
155.138
150.847
166.487
157.574
165.356
152.92
157.269
156.477
157.6
153.915
151.732
152.398
154.051
152.2
149.537
159.376
154.857
159.942
149.507
151.648
152.768
156.756
158.121
160.813
143.655
146.416
146.583
143.652
136.088
137.757
134.189
141.014
141.286
139.2
138.6
141.9
141.28
144.113
127.57
128.953
122.918
139.906
131.596
138.493
136.658
137.616
139.143
143.484
142.015
139.563
146.063
142.071
146.951
148.265
137.787
138.852
140.076
130.938
134.364
141.751
136.489
138.933
140.5
146.191
130.78
132.272
136.197
133.421
130.591
131.581
135.255
133.295
135.074
146.199
138.75
136.263
136.374
133.594
153.672
138.475
140.2
137.033
142.694
116.905
130.471
159.922
148.705
153.053
140.037
145.133
187.972
185.503
225.504
167.011
175.307
172.974
185.08
185.121
191.739
155.277
181.962
156.676
113.994
114.75
131.853
118.092
138.356
120.41
138.259
161.748
152.066
127.048
141.417
140.347
143.723
147.644
133.463
127.78
132.946
123.778
122.213
134.945
129.099
115.613
108.899
129.322
110.434
116.525
135.835
132.973
136.091
137.211
132.404
138.139
131.731
129.32
125.964
147.478
145.308
152.436
139.636
145.157
143.787
143.739
144.388
141.247
109.104
111.076
121.694
116.773
111.74
108.235
140.608
126.681
136.692
134.105
133.457
128.69
144.378
148.397
130.358
138.143
174.837
156.488
165.708
106.463
99.693
109.801
98.8162
104.831
101.304
111.342
153.929
148.896
134.873
170.246
161.628
180.005
125.498
139.116
130.156
140.519
143.096
155.249
164.298
146.11
183.701
174.118
169.075
173.835
177.065
147.501
169.848
179.431
177.259
173.492
176.089
192.017
192.179
228.597
207.953
176.119
190.765
174.708
177.525
201.439
181.73
228.669
208.732
197.699
141.837
139.508
151.059
144.167
140.045
139.09
138.115
176.956
174.676
149.069
167.547
161.992
171.465
168.978
135.042
138.234
136.326
139.634
140.164
142.698
144.813
141.349
140.6
144.644
141.684
138.991
136.837
142.468
138.27
136.491
139.913
140.211
138.834
147.638
144.675
150.307
140.716
149.359
154.74
155.184
147.125
146.793
159.735
155.315
157.208
150.069
154.462
147.859
133.428
141.729
141.404
133.343
143.341
145.722
147.471
145.866
142.772
142.049
146.344
137.613
141.061
148.3
150.438
142.623
146.842
144.934
130.519
119.631
125.053
129.426
131.359
109.682
132.708
118.19
107.482
110.665
138.038
135.201
139.736
143.964
133.015
120.935
127.727
127.844
180.706
173.674
175.261
175.019
157.215
140.924
135.076
136.823
145.25
158.559
134.853
138.916
137.396
136.392
135.84
146.073
136.716
141.14
138.702
143.81
142.103
138.623
147.999
177.522
194.541
180.183
172.785
159.678
132.043
149.229
141.441
149.222
158.964
147.659
177.916
151.676
157.886
161.939
161.693
161.49
162.62
144.257
146.411
150.007
150.948
159.844
166.909
168.326
167.954
152.093
145.886
162.919
156.751
167.94
