# vtk DataFile Version 4.2
vtk output
ASCII
DATASET POLYDATA
POINTS 642 double
-313.179 471.144 95.5842
309.181 466.329 94.2443
-312.888 -536.907 101.947
309.017 -533.144 102.825
-0.73142 -366.157 631.806
-0.833363 265.18 592.36
-0.335128 -326.835 -369.852
-0.335757 293.682 -429.387
509.839 -22.4412 -217.221
486.93 -35.5833 402.373
-516.72 -21.9832 -220.371
-494.683 -35.6691 405.671
-458.439 255.37 267.732
-288.01 141.922 567.725
-180.369 439.668 383.041
177.826 437.403 381.694
-0.291058 558.981 95.5492
186.632 455.757 -208.091
-188.431 458.241 -209.588
-308.938 157.666 -395.237
-508.756 281.082 -96.7037
-583.828 -29.9262 91.5199
285.484 140.231 564.017
452.549 250.45 265.964
-298.791 -228.421 589.641
-0.439609 -34.7555 692.049
-475.95 -327.079 -82.7575
-478.084 -332.129 283.032
-0.736971 -22.4299 -502.78
-294.022 -211.383 -372.582
501 276.976 -94.1769
306.167 157.328 -393.943
471.769 -329.139 280.825
294.173 -227.613 585.945
188.461 -536.661 411.904
-190.068 -538.951 413.439
-1.00333 -625.485 112.95
-182.08 -500.848 -190.988
180.486 -498.336 -189.489
291.952 -210.997 -369.801
471.406 -324.377 -82.1773
578.24 -30.0778 91.0706
-406.415 379.759 185.4
-338.517 370.977 338.606
-255.506 478.638 249.016
-407.226 57.5258 502.516
-394.188 206.343 436.112
-494.662 112.974 349.514
-92.7945 365.123 499.496
-240.94 303.309 491.222
-148.134 213.79 601.569
-99.3036 529.394 249.86
-161.936 540.799 97.0314
91.2502 364.192 498.303
-0.298054 457.185 396.266
160.653 539.924 96.3587
97.4523 527.919 249.487
252.016 474.718 247.763
-97.651 538.564 -62.2689
-264.189 479.657 -62.1546
262.813 479.128 -61.183
96.4416 536.396 -61.3274
-98.5488 394.887 -336.814
-0.511043 485.184 -226.87
97.2767 393.898 -335.922
-368.623 393.259 -166.325
-430.833 397.251 -8.27979
-158.958 236.399 -434.285
-261.783 327.467 -323.273
-542.766 133.372 -175.319
-433.703 233.848 -269.509
-435.105 73.5081 -327.919
-517.971 286.394 86.2794
-576.484 -21.4059 -71.3605
-591.143 134.288 -9.50512
-547.94 123.031 177.585
-556.452 -37.8093 257.133
332.984 366.653 336.14
400.552 374.352 182.4
145.8 212.43 598.67
238.372 301.096 488.767
487.883 111.855 346.968
389.978 204.047 433.107
402.616 56.3711 499.206
-151.738 61.9334 660.415
-0.730118 124.857 666.219
-409.653 -132.155 507.016
-307.8 -35.0701 597.145
-0.543676 -208.227 679.148
-155.25 -139.328 664.59
-159.718 -305.359 633.087
-557.631 -189.359 193.522
-505.261 -188.515 353.764
-510.901 -184.033 -158.779
-558.583 -186.442 1.61851
-412.551 -452.324 196.351
-504.183 -346.572 99.4328
-410.658 -447.105 6.39158
-313.984 -23.784 -402.229
-417.226 -122.385 -310.879
-0.380604 137.461 -496.974
-157.849 73.6294 -482.664
-154.861 -282.816 -399.789
-153.616 -120.651 -456.878
0.0519358 -172.605 -444.121
259.192 324.428 -320.929
157.494 235.38 -432.481
425.056 393.014 -6.78133
364.108 389.457 -163.965
430.762 71.3585 -324.563
427.848 230.913 -265.42
531.9 130.344 -170.309
407.985 -448.547 195.693
348.853 -451.495 358.363
257.371 -556.213 263.313
405.526 -130.087 502.949
403.59 -289.464 449.683
498.224 -186.582 350.489
98.4679 -471.716 541.084
257.27 -397.946 524.465
158.729 -304.636 631.792
97.7984 -620.878 267.175
158.294 -599.482 107.587
-99.7895 -472.939 542.483
-0.376586 -570.732 433.219
-159.747 -601.975 107.66
-98.6277 -622.428 267.281
-260.414 -559.748 263.952
101.389 -576.294 -47.6657
253.539 -531.908 -50.4731
-255.281 -534.777 -50.4272
-102.965 -576.669 -47.4765
101.106 -427.085 -300.157
-0.229738 -498.496 -192.033
-102.6 -427.212 -300.618
343.537 -433.196 -148.204
405.998 -443.08 6.38631
153.155 -281.866 -396.798
247.828 -372.068 -299.402
506.535 -182.853 -156.88
402.684 -279.523 -244.207
414.025 -122.049 -308.256
497.037 -342.949 99.2828
567.691 -22.7511 -68.5921
554.157 -184.548 0.411994
548.145 -187.388 192.996
547.161 -38.1408 254.157
153.57 -139.01 663.099
305.537 -35.0585 594.258
149.429 61.228 657.216
-353.506 -454.654 360.491
-259.822 -400.105 526.925
-409.383 -291.922 453.501
-248.887 -373.47 -301.039
-346.024 -435.285 -149.279
-405.749 -280.939 -246.321
313.096 -23.2684 -400.447
151.008 -120.35 -453.126
156.129 74.0824 -480.864
539.592 119.956 176.47
578.433 131.245 -8.32514
509.389 282.624 86.2805
-364.1 430.221 140.348
-334.373 436.573 221.196
-285.809 481.427 174.864
-403.916 319.321 307.326
-375.19 380.601 267.44
-438.622 322.478 226.844
-220.058 464.779 318.788
-300.921 429.287 297.199
-263.062 411.546 364.198
-455.127 11.4965 457.559
-457.426 86.778 429.933
-499.518 39.7934 380.149
-346.593 176.206 506.331
-404.665 134.336 473.328
-351.521 101.192 539.164
-480.649 183.23 313.073
-448.886 162.14 396.069
-430.788 232.488 356.984
-46.9156 316.768 548.159
-120.683 291.525 554.212
-75.211 242.601 602.615
-212.214 375.85 440.595
-168.851 338.791 499.367
-137.166 405.141 443.787
-219.197 179.745 589.145
-196.51 259.54 548.607
-266.608 223.759 534.496
-366.958 290.594 387.685
-321.019 258.155 467.487
-292.217 341.029 417.722
-212.739 517.314 175.008
-238.542 512.178 97.789
-142.423 491.824 319.418
-178.677 510.323 251.685
-83.9227 558.561 95.9952
-131.643 541.649 174.838
-51.5841 550.714 173.262
45.3461 316.354 547.462
-0.685119 368.731 503.904
91.2133 453.807 393.4
46.9516 415.177 451.145
135.252 403.696 442.394
-48.1702 415.498 451.653
-92.8084 454.269 394.046
235.182 509.289 96.8743
209.875 513.969 173.827
281.711 477.023 173.91
50.5887 551.451 173.239
129.679 539.607 173.878
83.0894 557.69 96.0075
217.069 461.581 317.274
176.379 507.509 250.861
140.127 489.824 318.722
-50.3091 500.655 326.217
49.4378 501.369 326.768
-0.358724 531.679 250.512
-212.366 519.073 18.0036
-291.873 478.03 15.0141
-50.6428 557.429 16.4021
-130.709 545.283 17.1824
-228.529 473.135 -137.465
-179.298 516.293 -63.0668
-143.74 505.079 -138.268
288.747 475.275 13.9527
210.887 517.199 17.8172
142.245 502.805 -137.433
178.872 513.965 -61.7896
226.692 469.823 -135.283
130.024 544.153 17.9925
49.7222 556.908 16.781
-49.9891 348.474 -388.187
-0.378063 400.439 -342.933
49.1274 348.138 -387.824
-94.8491 478.2 -222.536
-49.8476 445.576 -285.361
-144.567 431.906 -276.859
142.742 430.072 -275.524
48.8681 445.146 -285.098
93.528 476.837 -221.917
-0.772003 546.212 -64.6134
48.6463 517.901 -146.776
-50.0045 518.996 -147.035
-356.989 448.681 -38.7125
-375.141 433.993 39.4485
-283.063 429.168 -189.9
-323.288 444.494 -116.974
-476.582 346.221 -53.2332
-405.807 401.911 -87.5561
-444.457 343.054 -134.374
-80.5579 268.146 -437.473
-130.474 320.875 -392.899
-288.541 245.703 -364.844
-211.422 285.759 -385.326
-234.315 198.254 -420.137
-180.686 366.067 -335.967
-228.292 399.467 -271.32
-535.374 56.8146 -201.908
-497.482 104.997 -258.484
-481.76 26.8079 -278.017
-477.816 261.187 -187.587
-493.261 185.3 -225.725
-530.707 208.56 -137.718
-380.04 118.176 -369.039
-440.962 154.133 -305.459
-378.602 198.336 -339.354
-322.529 366.988 -250.913
-355.527 286.558 -302.378
-407.158 319.622 -222.967
-423.367 390.245 86.6339
-523 290.501 -4.9494
-480.627 345.392 38.3714
-465.252 333.631 133.216
-493.074 273.911 173.057
-553.459 -22.0006 -147.555
-570.971 56.9781 -124.464
-592.682 58.9423 36.2082
-593.293 59.5251 -42.3966
-582.184 -22.8642 9.79268
-575.297 136.322 -92.0248
-560.102 209.869 -54.8803
-531.706 39.1555 306.82
-530.637 -36.4553 333.58
-509.019 188.692 222.991
-523.833 115.837 269.504
-573.166 -36.4925 175.978
-554.339 41.5406 222.578
-570.859 49.484 133.586
-562.234 213.848 38.6493
-583.159 135.226 83.583
-546.799 208.958 130.463
329.311 431.811 219.75
359.589 424.831 138.342
259.284 408.04 362.047
296.496 425.144 295.143
431.525 316.706 223.06
368.796 376.224 264.992
396.46 313.457 304.698
73.3546 241.801 601.156
118.869 290.466 552.274
264.064 222.022 531.156
194.362 258.084 545.66
216.722 178.128 585.165
166.872 337.142 497.347
209.495 373.412 438.727
492.03 39.4125 377.362
451.571 85.5028 426.772
449.261 11.2712 454.535
426.308 228.98 355.458
443.548 160.432 393.13
474.724 180.716 311.661
347.853 99.5794 535.727
400.012 132.603 469.901
342.92 174.3 502.862
288.484 337.533 415.457
317.747 255.697 464.878
362.56 286.618 385.949
-76.1047 173.102 641.792
-0.791316 197.951 634.891
-221.884 104.228 620.027
-152.093 140.037 636.904
-0.705874 47.3386 685.697
-77.456 94.4005 670.24
-77.5613 15.2212 684.835
-458.268 -82.2763 459.311
-415.302 -34.9649 509.737
-303.876 -133.438 592.881
-363.114 -84.2176 556.639
-358.157 -182.697 551.37
-361.544 12.1928 554.564
-302.354 55.4765 588.404
-0.572489 -289.684 664.751
-81.2249 -261.309 666.936
-80.6192 -339.367 638.236
-78.0484 -85.8218 687.286
-80.1141 -173.982 678.135
-0.402523 -119.833 689.256
-233.958 -268.702 619.189
-161.631 -226.238 659.307
-229.58 -188.384 636.057
-232.001 13.5127 634.404
-233.589 -87.2677 637.798
-154.509 -34.9883 668.857
-540.029 -112.543 307.938
-505.273 -111.948 382.001
-575.317 -113.142 145.693
-565.101 -113.827 227.284
-496.242 -262.619 321.027
-536.674 -189.931 274.703
-524.71 -262.807 239.113
-515.246 -104.132 -190.373
-548.952 -104.77 -116.327
-523.504 -259.034 -42.2715
-541.312 -186.82 -81.2762
-496.963 -257.062 -122.878
-570.942 -107.818 -35.5226
-579.648 -111.162 46.8136
-366.466 -499.703 149.654
-418.391 -456.141 100.185
-365.81 -496.549 53.4466
-497.703 -343.37 190.869
-464.107 -402.603 147.385
-450.115 -395.84 241.189
-447.552 -390.319 -39.4374
-462.859 -400.883 52.3801
-495.755 -341.029 8.20004
-567.88 -192.104 97.8795
-538.895 -270.242 51.189
-539.772 -271.378 146.768
-431.635 -22.6889 -324.013
-468.896 -72.2596 -268.809
-317.767 69.9301 -408.008
-380.206 26.6003 -371.251
-358.091 -169.414 -345.856
-370.44 -73.7746 -360.674
-307.523 -121.37 -393.043
-0.371353 217.897 -467.971
-80.1848 189.42 -472.433
-78.1795 26.64 -500.747
-80.7019 105.969 -498.167
-0.429325 57.8982 -508.17
-161.211 153.797 -465.445
-235.293 117.796 -448.313
-87.2831 -306.999 -391.085
-85.4571 -233.676 -426.913
-0.237011 -252.258 -409.776
-226.039 -169.715 -419.56
-157.185 -205.036 -431.182
-224.408 -249.153 -390.379
-0.564788 -96.9119 -484.297
-80.2705 -147.22 -457.607
-76.294 -69.4223 -486.798
[...]
POINT_DATA 642
SCALARS Mean_Curvature double 1
LOOKUP_TABLE default
0.00303131
0.00233182
0.00397196
0.00363546
0.00467634
0.00399283
-0.00203546
0.00423223
0.00364557
0.0038603
0.00408188
0.00406075
0.000470666
0.00310019
0.00349408
0.00350732
0.00176429
0.00305612
0.00309288
0.00214705
0.00353156
0.00275363
0.00317117
0.000596672
0.00431125
0.00285417
0.00314989
0.00290001
0.00447473
0.00314519
0.0035904
0.00284359
0.00305233
0.00446028
0.00338911
0.00344916
0.00343686
0.00427801
0.00349231
0.00323105
0.00323933
0.00355286
0.00228753
0.00377568
0.00385937
0.00353498
0.00328015
0.00341743
0.00347224
0.00284262
0.00373431
0.00417269
0.00327172
0.00344529
0.00180026
0.00389867
0.00397998
0.00385848
0.0034088
0.00101642
0.0023672
0.00295681
0.00359264
0.00371147
0.00362699
0.00375157
0.00487479
0.00350293
0.00164559
0.0050186
0.00375347
0.0038928
0.00466626
0.00289671
0.00603855
0.00062741
0.00293976
0.00360688
0.00180794
0.00353474
0.00290529
0.00349272
0.00335033
0.00357218
0.00397408
0.00382875
0.00189986
0.00324835
0.00243181
0.00159268
0.00323307
0.00306827
0.0028886
0.00350237
0.00239499
0.00287222
0.00377912
0.00326506
0.00105828
0.00284959
0.00417955
0.00456295
0.00528682
0.00323036
-0.00152233
0.00144359
0.00344485
0.00454551
0.00364705
0.00451835
0.00377366
0.00393636
0.003194
0.00337849
0.00323582
0.00261844
0.0032008
0.00293718
0.0037385
0.00367271
0.00380235
0.00419185
0.00215145
0.00383371
0.00363389
0.00217577
0.00418896
0.00373965
0.00339293
0.00296715
0.00269159
0.00293816
0.00388131
-0.00373014
0.00354996
0.00360823
0.00319353
0.00441044
0.00346049
0.00352962
0.0034473
0.00311478
0.00378993
0.00213813
0.0035018
0.00299754
0.00267099
0.00199307
0.00361174
0.00380466
0.00343133
0.0035995
0.00312622
0.0032518
0.00355133
0.00342322
0.00196993
0.00254123
0.00489703
0.000483681
0.0052944
0.00442505
0.00229022
0.00374254
0.00380955
0.00357204
0.00392797
0.00263857
0.00395471
0.00392723
0.00362691
0.0034174
0.0035028
0.00344606
0.00343138
0.00356016
0.00352637
0.0028968
0.00349205
0.00239258
0.00250358
0.00251109
0.00381381
0.00297299
0.00329687
0.00301638
0.00322301
0.00234906
0.00269296
0.00183525
0.00253379
0.00276911
0.0038781
0.00325581
0.00399139
0.00391806
0.00461313
0.00376008
0.0027851
0.00251391
0.00289624
0.00323825
0.00311508
0.00299202
0.00308196
0.00307943
0.00314845
0.00369273
0.0036985
0.00350692
0.00338548
0.00448805
0.00393218
0.00393093
0.00387391
0.00325278
0.00395779
0.00212527
0.00326263
0.000483196
0.0032713
0.0032911
0.00163389
0.00292205
0.00333011
0.000363029
0.00344896
0.00329985
0.00280916
0.000921116
0.00345362
0.0033126
0.00362748
0.0036212
0.00373101
0.00328866
0.00348783
0.00362293
0.00357238
0.00362308
0.00329981
0.0034782
0.0031824
0.00327689
0.00613542
0.00238231
0.00318693
0.0044195
0.00534829
0.00415034
0.00339065
0.00357032
0.00362729
0.00148282
0.00358017
0.00292849
0.00361802
0.00239593
0.00381719
0.00544385
0.00359731
0.00371875
0.00337213
0.00295411
0.00581119
0.0040135
0.0039096
0.00401469
0.00412347
0.00375945
0.00251693
0.00442681
0.00431696
0.00256603
0.00270881
0.00317034
0.00420979
0.0040615
0.00585512
-0.000101843
0.00490393
0.00488586
0.00328939
0.0033132
-5.57595e-05
0.00258813
0.00246064
0.00193409
-6.27947e-05
0.00386899
0.00609127
0.0050183
0.00370433
0.00183293
0.00354824
0.00393947
0.00175668
0.0040276
0.00262448
0.00372828
0.00248066
0.00274522
0.00234727
0.00295816
0.00330671
0.00299393
0.0034932
0.00349651
0.00364334
0.00288667
0.00355152
0.00324491
0.0034967
0.00350883
0.00338739
0.00268879
0.00269574
0.00203812
0.00399396
0.0038658
0.00333075
0.00388632
0.00391873
0.0039705
0.00385553
0.00367239
0.00349887
0.000760475
0.00312664
0.00377731
0.00356421
0.00328242
0.00461004
0.00422675
0.00377369
0.00358998
0.00203705
0.00247885
0.00501857
0.00547633
0.00373029
0.00290727
0.00264533
0.00290311
0.00379779
0.00335306
0.00237542
0.00441855
0.00287576
0.00283006
0.00315766
0.00227155
0.00239468
0.0024669
0.00371901
0.00300565
0.00317627
0.00319715
0.00302843
0.00388045
0.00367988
0.00344693
0.00363603
0.00284986
0.00316435
0.00363952
0.00337432
0.00412552
0.00354652
0.00380017
0.00373594
0.00188631
0.0028683
0.00388266
0.00302271
0.00211805
0.00319819
0.00350481
0.00301357
0.00385139
0.00508392
0.00465822
0.00317369
0.004924
0.00330882
0.00347977
-0.00102845
0.00293002
0.004019
0.00284509
0.0047977
0.00146383
0.00406314
0.00276509
0.00233218
0.00213327
0.00357347
0.0036423
0.00207675
0.00362201
0.0025824
0.00339812
0.0025068
0.00338567
0.00589636
0.00335788
0.00416428
0.0053129
0.00405023
0.00398023
0.00423193
0.00437643
0.00459642
0.0037989
0.00389574
0.00429752
0.00321525
0.00366531
0.00369495
0.00393453
0.00375997
0.00399381
0.002989
0.0028225
0.00312575
0.00301701
0.00283617
0.00320385
0.00395401
0.00399925
0.0038076
0.0033543
0.00250682
0.00349468
0.0034673
0.00342094
0.00185466
0.00288176
0.00327961
0.00321237
0.003988
0.0033503
0.00314352
0.00355863
0.00352505
0.00354803
0.00476089
0.00364357
0.00392678
0.00316337
0.00361578
0.00371186
0.00224953
0.00283365
0.00287613
0.00550645
0.00361424
0.00349703
0.00352842
0.003878
0.00387134
0.0036918
0.00393905
0.0036649
0.0040725
0.00366243
0.00250212
0.00271899
0.00225763
0.00379194
0.00360742
0.00396239
0.00371698
0.00493759
0.00305879
0.00429722
0.0042583
0.00573595
0.00275325
0.00320232
0.00178656
0.00396066
0.00310507
0.00298929
0.00497331
0.00347363
0.00293706
0.00474912
0.0039946
0.00279389
0.00361804
0.00184532
0.00451934
-0.00366432
0.00440248
0.00415899
0.00465794
0.0053179
0.00514392
0.0045349
0.00383359
-0.00235741
0.00348838
0.00359509
0.00308394
0.00346333
0.00347782
0.00351056
0.00318329
0.00341283
0.00355616
0.00380679
0.00491915
0.00363287
0.00315166
0.00317399
0.00387788
0.00317138
0.00265425
0.00346837
0.00183216
0.0033752
0.00313611
0.00311665
0.00289427
0.00304468
0.00345952
0.00355358
0.0035711
0.00354622
0.00362439
0.00308995
0.00364933
0.00347425
0.00332393
0.00272229
0.00285345
0.00383417
0.00347067
0.00055034
0.00370923
0.00263449
0.00407245
0.00281042
0.00319528
0.00314478
0.00240704
0.00418029
0.00199608
0.00331566
0.00248875
0.00396658
0.0044707
0.0032309
0.0054671
0.00172642
0.00412518
0.00367087
0.00347412
0.00370379
0.00334726
0.00135104
0.00402667
0.00381373
0.00401597
0.00381351
0.00299451
0.00264485
0.00288789
0.00242801
0.00307644
0.00372538
0.00367038
0.00306836
0.00316924
0.00354024
0.00367447
0.00348902
0.00358124
0.00354889
0.00230613
0.0032566
0.00348662
0.00371202
0.00334235
0.00362866
0.00363374
0.0033366
0.00492565
0.00294853
0.00475218
0.00309267
0.00349955
0.00305365
0.00345098
0.00323796
0.00334206
0.00332283
0.00331339
0.0033912
0.00311344
0.00314663
0.00334207
0.00351389
0.00352301
0.00353842
0.00348072
0.00288129
0.00211403
0.00405872
0.00365436
0.00401205
0.00360415
0.00266735
0.00343622
0.00299415
0.00298366
0.00493438
0.00327769
0.00509508
0.00401768
0.00203351
0.00188876
0.00189703
0.00315051
0.00148573
0.00149749
0.00273871
-2.32623e-05
0.00461257
0.00518868
0.00433519
0.00605666
0.00348895
0.00355062
0.00306762
0.00353157
0.00401945
0.00437384
0.00512111
0.00408816
0.00484266
SCALARS CoVolArea double 1
LOOKUP_TABLE default
5823.55
5805.31
5592.47
5524.08
5878
5262.13
5810.31
5837.82
5609.04
5202.45
5743.64
5288.55
7547.81
6887.87
6795.08
6727.09
7237.94
7582.04
7616.85
7615.39
7650.11
7541.73
6812.6
7431.74
7166.66
7146.12
7111.95
7271
6792.31
7016.78
7426.72
7481.81
7101.29
7122.55
7663.87
7717.01
7098.62
6580.8
6551.72
6935.73
6994.14
7193.45
6959
7093.4
6486.29
6436.9
7204.21
6465.61
6519.62
7307.32
6451.74
7253.29
6719.95
6493.77
7341.05
6620.12
7217.49
6400.54
7626.21
7313.36
7100.37
7671.23
7124.78
7759.76
7084.09
7867.31
6734.54
7213.39
8223.87
7101.92
8004.61
6841.31
7324.59
7006.16
7225.94
7850.3
6628.47
7019.54
6855.43
6434.98
7205.9
6286.2
7034.83
6304.15
7240.37
6419.88
6894.81
7565.8
7143.45
7809.94
7095.57
7324.56
6765.82
6846.63
7509.03
6937.86
7306.7
6677.18
7975.21
6965.24
7009.09
7504.82
6099.71
7534.96
7277.44
8122.5
7192.75
6573.16
7743.98
6744.61
7827.19
6955.4
6806.03
7632.17
6872.19
6767.18
7478.27
6584.79
7351.74
7813.24
7018.5
7627.19
6941.21
7378.38
8129.31
6967.69
7664.05
6967.47
7379.1
6629.96
6689.62
7422.97
6258.01
7802.33
6284.35
7121.72
6595.43
6139.03
7088.09
6693
7222.2
6870.8
7188.68
6898.41
7257
7255.12
6550.44
7743.57
7391.68
7233.75
7749.49
7934.04
7609.69
7172.96
7234.29
7310.94
7772.39
7587.59
7464.81
7707.13
7049.25
7090.42
6908.47
6751.43
6627.42
7299.67
6609.42
6802.61
6318.26
6435.77
7013.95
6341.03
6454.99
6312.84
7064.74
6424.14
6359.28
6841.16
6483.92
7373.43
6442.47
6614.25
6294.76
7102.02
6607.27
6405.4
6436.49
6665.43
7202.99
8195.64
8189.48
8121.08
6672.56
6864.09
7026.9
6537.48
6652.46
6659.02
7406.6
6435.52
6619.74
7079.81
6613.53
6354.77
6636.94
7154.29
6797.71
6614.28
6597.15
7377.76
6624.21
6594.69
6246.21
6505.58
6960.96
8127.82
8070.23
8271.35
7223.17
7169.74
7500.09
6889.93
7220.89
7247.37
7763.41
7027.64
7058.98
7773.14
7188.27
7154.27
6838.92
7498.57
7022.79
7192.93
6999.45
7728.67
7154.25
7075.28
7035.27
7127.37
7694.57
8517.35
8594.15
8588.43
6965.91
6902.78
7874.94
7122.34
6894.53
6974.85
7939.3
7056.74
7218.33
8158.54
7428.48
7240.68
7349.54
8004.89
6794.75
7052.66
6826.57
8057.16
7352.14
7242.95
6845.12
7132.83
7894.69
8910.29
8979.66
8891.16
7026.02
7569.35
6876.27
6908.3
7552.87
6852.58
6939.9
7389.34
6767.13
7066.72
7009.86
7692.43
6661.88
6368.41
7897.81
7099.03
6931.88
7241.68
7861.4
8149.29
8102.63
8198.7
6672.98
6826.1
6931.42
6322.99
6765.98
6573.26
7286.65
6282.54
6589.26
7110.56
6616.79
6416.69
6547.4
7026.25
6195.28
6313.79
6199.98
7195.54
6300.72
6615.89
6247.12
6315.17
6952.99
8016.87
8035.87
8058.57
6434.39
6216.85
7149.38
6468.95
6461.88
6517.87
7264.16
6559.57
6683.97
7706.7
6934.84
6798.12
6626.13
7186.98
6920.14
7089.97
7057.3
7644.07
7210.99
7061.54
6757.03
6933.58
7538.83
8316.36
8695.92
8479.14
6612.75
6507.6
7398.46
6635.6
6762.06
6759.91
7396.21
6969.68
7079.31
7439.17
6905.76
6665.44
7150.82
7629.36
6773.12
6784.12
6559.95
7374.91
6806.8
6847.32
6610.12
6709.43
7330.18
8189.86
8219.34
8152.03
7017.16
6961.39
7705.79
7036.9
6726.21
7127.38
7617.5
7058.94
7245.04
7266.34
6922.38
6588.1
7127.09
7647.59
6442.1
6881.76
7301.52
7380.41
6564.24
6409.47
6530.58
6923.12
7224.04
8667.43
8473.39
8711.49
7186.14
7027.25
7948.27
7310.43
7138.97
7358.94
7972.59
6762.26
6807.62
7768.15
6870.68
6743.46
7013.19
7785.8
6650.88
6938.54
6633.57
7761.18
7052.78
6793.43
7034.86
7187.44
7841.39
8787.6
8733.33
8814.37
6673.29
7000.11
6809.66
7493.24
6972.39
6684.38
6903.67
6968.49
7684.96
6399.96
6774.5
6363.51
7394.62
6841.19
6819.36
6603.82
6774.63
7401.92
7207.97
7394.27
7061.33
7847.05
7352.47
7243.31
6629.19
7190.62
7479.57
8480.35
8492.26
8604.71
7049.1
6804.75
7839.23
6932.31
6655.97
6925.9
7372.47
7201.89
7446.41
8072.82
7466.34
7281.96
7444.07
8046.7
6895.12
7110.42
6934.17
7351.83
6934.09
6630.03
7008.38
7017.15
7896.18
8855.16
8869.06
8505.6
6841.33
6571.45
7712.61
6718.93
6377.46
6548.84
6763.16
6609.93
6871.54
6793.71
6556.99
6435.15
6737.92
7723.19
6512.02
7091.58
6542.83
6886.16
6754.91
5948.81
5962.63
6787.96
6932.8
9039.98
8502.26
8460.57
6678.35
6522.88
7044.02
6577.93
6500.67
6611.4
7123.9
6408.42
6085.13
7042.98
6392.17
6360.87
6232.51
6966.76
6819.58
6873.5
6830.81
7170.87
6679.91
6539.23
6663.58
6735.83
7139.58
7944.15
7951.6
7986.51
6691.13
7221.58
6616.45
6666.42
7193.6
6724.26
6925.29
7361.28
6882.94
6814.77
6680.94
7269.69
6437.49
6286.14
7205.55
6558.86
6706.48
6514.36
7283.72
8100.64
8138.28
8047.7
7070.02
7450.06
6872.86
7180.59
7585.87
6512.09
7064.43
6452.43
6802.9
7610.33
6405.62
7233.25
6489.28
6449.84
7119.85
8578.43
8255.96
8441.58
7090.29
7808.23
7077.04
7076.27
7617.83
7422.91
7626.78
7299.24
7407.25
7932.93
6941.25
7530.54
6910.64
6923.66
7467.11
8742.87
8658.55
8602.15
6076.22
7008.41
6231.08
6427.16
7164.95
6757.75
7248.26
6732.46
6699.8
7137.59
7005.36
7222.07
6828.76
6783.05
7284.49
8042.26
8089.67
8052.67
6887.12
7534.11
6988.44
6870.53
7538.69
6813.03
7218.77
6832.4
6576.84
7372.46
7219.77
7553.87
7077.17
6868.48
7242.41
8717.95
8529.1
8601.62
6576.48
7548.34
7093.1
6946.53
7736.95
6789.61
7438.63
6801.94
6620.71
7162.83
6805.48
7359.02
6684.77
6665.93
7357.59
7930.2
7936.76
8020.02
SCALARS SignedDistance double 1
LOOKUP_TABLE default
329.609
345.557
329.522
338.272
268.252
364.787
429.87
272.383
328.563
365.858
317.153
349.514
378.567
359.348
357.156
363.686
333.573
307.84
299.962
303.228
264.434
353.396
368.508
392.027
324.122
325.217
334.641
327.056
362.277
348.528
283.827
309.385
342.306
336.484
275.52
268.038
387.611
376.012
371.86
353.297
345.021
364.208
351.104
363.604
333.936
351.804
369.952
366.863
365.409
370.11
360.055
338.961
321.736
368.735
364.861
327.19
338.39
345.704
316.918
323.377
332.592
317.717
278.504
293.923
282.789
280.893
316.64
280.187
289.363
272.372
259.652
299.484
343.246
331.475
320.436
376.848
359.399
378.365
370.963
367.986
378.347
380.432
380.446
363.627
337.221
338.126
337.126
340.237
312.772
321.58
283.357
341.408
338.18
329.721
339.706
318.208
324.291
332.04
334.544
332.176
293.818
325.516
388.239
373.387
419.527
297.772
285.994
328.395
288.062
308.756
272.882
289.44
332.067
316.594
317.318
349.644
334.529
354.543
256.375
290.99
291.811
311.29
354.682
249.961
249.179
356.201
310.616
309.178
397.321
356.105
353.385
402.893
401.295
431.159
407.161
346.187
342.262
381.351
358.159
339.063
343.601
340.173
340.244
342.373
351.479
360.31
377.436
327.113
348.164
347.041
302.467
278.818
318.466
356.444
340.769
336.266
344.74
368.358
329.395
391.367
338.675
359.116
337.612
339.012
327.397
373.138
355.621
368.014
345.072
347.592
357.949
350.422
358.827
358.056
364.409
360.863
354.936
374.787
368.043
375.679
369.036
367.108
360.193
364.673
366.152
362.387
361.554
369.187
369.403
375.204
372.572
369.868
323.04
322.364
345.935
332.375
325.36
325.926
336.85
370.03
369.101
363.138
366.114
367.653
365.962
361.143
333.699
332.431
341.365
335.818
328.934
325.625
354.174
339.083
349.717
358.354
357.728
346.914
320.029
330.38
323.962
315.894
312.258
316.634
305.884
339.611
326.305
312.15
321.517
319.98
318.732
321.656
273.348
277.987
274.982
295.193
285.987
287.585
293.995
287.918
299.315
322.137
306.378
304.816
324.02
342.748
307.882
305.716
290.148
289.23
265.911
274.625
275.23
291.791
282.36
290.887
281.555
292.444
296.074
283.256
305.603
253.924
256.891
258.237
301.567
271.157
277.505
287.448
275.762
263.453
350.271
304.134
326.121
362.194
375.528
321.021
303.852
352.892
328.332
341.171
284.528
285.934
363.336
354.38
377.222
372.288
360.931
369.082
368.501
324.306
357.174
364.349
355.394
356.386
369.012
361.458
386.918
373.222
388.827
364.775
372.319
377.543
376.391
370.307
372.774
372.859
373.421
371.733
363.86
386.999
379.722
387.585
365.443
372.245
374.442
380.323
381.955
386.362
346.533
351.131
350.883
347.567
328.342
333.983
326.179
341.941
343.892
334.978
337.959
337.259
345.468
348.997
296.377
299.348
275.267
327.484
316.456
322.353
303.752
313.55
329.66
342.429
336.547
333.01
347.893
343.771
350.822
349.024
333.315
339.079
334.531
323.042
325.138
337.109
332.114
334.893
332.053
343.668
320.736
323.008
330.716
324.724
320.476
321.258
332.966
326.832
331.178
343.572
332.956
329.181
323.75
323.994
326.111
321.271
340.276
333.281
342.589
276.702
282.961
342.486
310.975
327.441
292.609
313.759
411.883
409.059
426.822
358.44
382.321
361.566
396.133
400.302
385.2
345.491
361.88
346.976
280.735
277.674
301.978
289.435
300.286
291.215
299.134
352.618
330.487
279.857
299.79
305.72
308.833
307.852
317.494
294.036
310.154
285.934
284.38
304.85
279.257
274.92
270.993
290.184
274.377
282.023
332.738
322.553
329.332
330.856
324.56
335.4
293.081
314.323
296.021
357.731
353.176
363.022
333.158
346.935
346.56
348.922
347.536
339.628
257.007
269.093
277
279.744
271.236
263.555
314.721
287.296
309.953
324.095
316.345
303.262
331.454
343.556
281.873
313.928
372.48
338.619
347.218
252.903
244.695
255.915
244.359
256.178
247.959
260.897
339.817
329.118
323.097
351.073
337.903
376.189
285.168
307.88
278.111
274.747
272.054
315.348
357.556
348.638
399.302
378.87
362.391
372.02
387.926
342.632
356.356
391.973
376.201
361.816
382.905
404.94
416.176
430.757
425.197
402.533
417.768
389.102
393.356
424.69
407.557
426.636
424.662
418.027
346.7
340.728
354.74
350.172
343.64
344.176
343.141
403.662
392.281
354.689
366.5
362.502
375.425
363.637
332.567
338.096
332.12
343.337
342.209
344.374
348.003
343.673
346.811
350.811
347.976
344.354
335.787
345.77
339.987
335.435
340.871
332.785
335.596
354.068
343.092
351.433
342.078
349.515
366.756
373.051
351.069
355.531
377.293
368.997
370.405
351.603
363.358
348.407
301.323
338.771
320.758
318.777
330.282
355.403
358.12
355.609
348.156
343.259
351.872
332.394
339.886
356.702
360.417
342.355
350.87
342.386
315.994
284.779
301.87
313.155
316.618
263.168
296.008
277.05
262.573
269.464
338.048
323.881
331.174
330.168
318.961
289.131
301.178
308.654
398.481
363.343
380.248
367.223
351.682
340.066
335.196
336.95
346.064
352.252
329.422
340.736
335.7
333.557
334.832
347.043
337.88
343.11
332.199
349.71
341.846
328.517
330.912
401.945
385.698
396.423
376.784
360.489
285.698
322.342
297.55
313.529
344.391
351.181
361.367
349.395
380.405
379.826
386.092
388.093
391.916
318.783
307.677
304.816
343.411
365.552
363.423
389.707
376.845
340.725
322.108
373.051
343.602
380.338
