# vtk DataFile Version 4.2
vtk output
ASCII
DATASET POLYDATA
POINTS 642 double
-294.288 440.373 94.5697
289.4 434.522 92.4022
-294.474 -505.744 103.818
289.419 -501.383 105.109
-1.14028 -352.848 606.329
-1.29488 241.309 560.075
-0.312148 -305.059 -329.904
-0.525667 277.879 -403.558
479.218 -17.2272 -198.719
451.768 -37.1345 382.416
-487.734 -16.6074 -202.236
-461.397 -37.316 386.075
-423.915 236.612 252.495
-267.815 127.515 536.702
-168.82 409.441 360.577
165.217 406.857 359.044
-0.40064 521.997 93.9331
175.913 427.555 -193.138
-178.199 430.596 -194.917
-293.992 148.486 -367.972
-486.316 266.836 -88.7466
-545.343 -29.3908 88.2514
264.712 125.419 532.235
417.152 230.284 250.634
-278.683 -222.38 561.573
-0.656467 -35.754 655.935
-445.88 -308.688 -70.9127
-447.709 -315.46 272.426
-1.199 -16.1807 -466.571
-276.133 -198.782 -340.986
476.797 262.027 -85.8103
290.443 148.308 -366.818
439.865 -312.007 269.736
272.705 -221.581 557.215
177.023 -512.439 398.081
-179.199 -515.173 400.002
-1.4598 -586.802 121.116
-172.288 -468.975 -171.251
170.105 -466.442 -169.743
273.528 -198.554 -337.625
440.254 -305.391 -70.5302
538.57 -29.3935 87.3818
-379.581 354.336 176.364
-314.3 346.457 318.886
-239.086 447.795 237.814
-379.653 49.5813 476.206
-366.371 187.046 413.106
-459.617 100.592 333.244
-86.7214 337.288 470.625
-222.826 279.592 463.031
-136.518 194.04 569.357
-95.0123 494.488 238.233
-151.765 506.581 96.372
84.4029 336.247 469.179
-0.390065 423.882 373.067
149.79 505.502 95.328
92.2105 492.938 237.901
234.39 443.187 236.322
-91.8126 505.112 -54.4901
-251.121 447.422 -55.5218
248.865 446.077 -53.9806
90.129 502.755 -53.2741
-93.215 372.85 -315.901
-0.795999 456.549 -211.619
91.3071 371.633 -314.842
-352.688 371.054 -153.582
-409.783 372.214 -8.1203
-150.088 223.546 -407.544
-248.962 308.82 -301.113
-517.945 127.701 -162.903
-414.789 221.507 -251.953
-413.38 72.5539 -304.209
-488.943 267.531 78.9098
-541.348 -16.0459 -64.453
-560.076 128.575 -8.75966
-509.28 114.233 164.046
-518.225 -40.6085 246.77
307.097 341.346 316.146
372.465 347.965 171.94
133.239 192.472 565.841
219.454 276.938 460.142
451.238 99.5008 330.355
361.157 184.327 409.554
373.843 48.0868 472.362
-140.309 54.9604 625.807
-1.15642 112.739 630.995
-382.31 -128.639 481.628
-287.628 -36.2932 565.269
-0.794334 -203.918 644.794
-145.144 -137.931 630.478
-151.094 -294.141 606.235
-521.287 -180.9 187.083
-472.238 -180.39 337.842
-479.685 -173.291 -143.126
-522.77 -176.37 7.31272
-387.402 -427.911 191.704
-473.149 -328.321 100.079
-385.655 -421.186 13.8909
-296.278 -19.617 -369.979
-392.605 -114.116 -284.827
-0.598661 130.127 -467.776
-147.531 72.6523 -450.637
-147.747 -264.888 -364.459
-144.545 -111.049 -420.458
0.326829 -153.526 -402.707
245.436 304.61 -298.102
148.046 222.273 -405.395
402.514 367.569 -6.06787
346.918 366.766 -150.894
408.215 69.6246 -300.55
407.477 218.134 -247.147
504.493 123.892 -157.02
381.529 -423.341 191.01
325.359 -429.315 345.611
239.513 -526.587 258.493
377.267 -125.611 476.723
375.854 -276.478 429.408
463.621 -178.087 333.889
92.3057 -452.8 521.155
241.155 -380.879 503.53
149.495 -293.327 604.796
90.7561 -589.932 262.959
147.362 -563.887 112.021
-94.2687 -454.315 522.933
-0.611861 -547.062 419.417
-149.396 -566.802 112.233
-92.0801 -591.981 263.022
-243.634 -531.016 259.215
99.6911 -536.342 -34.6074
237.633 -497.847 -39.3934
-239.739 -501.346 -39.0495
-102.159 -536.473 -34.2109
100.172 -397.298 -269.666
-0.21196 -458.205 -168.197
-102.434 -397.183 -270.071
321.655 -406.463 -131.461
379.879 -416.428 13.5431
145.207 -264.069 -361.518
232.159 -348.678 -271.96
474.34 -171.865 -140.907
376.874 -262.897 -221.519
388.703 -113.772 -281.684
464.348 -324.104 99.8254
531.241 -18.0826 -61.0911
517.262 -173.829 5.0884
509.86 -178.79 186.91
506.991 -41.0746 243.129
142.558 -137.567 628.735
284.742 -36.3091 561.822
137.061 54.0834 621.926
-331.497 -433.021 348.194
-244.639 -383.481 506.48
-383.177 -279.184 434.004
-233.363 -350.355 -274.028
-324.826 -408.898 -132.647
-380.712 -264.518 -224.006
294.969 -18.744 -367.079
141.023 -111.312 -416.743
145.005 73.584 -448.419
499.4 110.268 162.846
544.496 124.867 -7.62956
478.294 263.416 78.9329
-341.185 401.905 135.092
-311.976 408.41 211.876
-267.472 450.742 169.377
-373.824 298.06 290.075
-348.823 355.682 254.021
-407.726 301.103 213.598
-205.925 434.19 301.689
-280.551 401.198 281.795
-244.971 383.982 342.861
-424.377 6.70954 434.387
-425.8 76.4862 408.277
-465.024 32.7632 362.026
-322.766 158.969 478.789
-376.643 120.576 448.486
-327.712 89.9562 510.064
-445.845 165.967 298.468
-417.084 146.191 376.307
-399.205 212.605 338.637
-43.905 290.344 516.887
-111.433 266.89 522.934
-69.5966 220.626 570.208
-196.798 348.71 414.79
-156.506 313.021 470.462
-128.106 375.572 417.962
-202.639 162.51 557.267
-181.574 237.04 517.684
-247.093 203.521 504.73
-339.718 268.379 365.242
-297.594 236.215 441.32
-270.484 316.524 393.039
-199.732 484.412 169.498
-223.499 479.726 97.5135
-134.619 459.131 301.972
-167.952 477.287 240.331
-80.0372 523.267 94.6726
-124.428 506.954 168.83
-50.0536 514.088 166.54
41.526 289.95 516.101
-1.03451 340.154 474.49
85.4963 421.419 370.216
43.8391 384.111 425.042
125.315 373.934 416.246
-45.6721 384.37 425.651
-87.9368 421.812 371.103
218.75 476.237 96.0891
195.763 480.512 167.942
262.089 445.534 168.165
48.5504 515.21 166.561
121.463 504.597 167.527
78.7332 522.238 94.7298
201.809 430.467 299.913
164.687 474.005 239.387
131.186 456.852 301.23
-48.316 465.853 307.922
47.0612 466.945 308.751
-0.430882 495.395 238.505
-198.952 486.547 21.8741
-276.154 445.944 17.2984
-48.365 522.44 19.7699
-122.578 511.402 21.0023
-216.772 442.853 -126.738
-167.96 484.07 -55.2935
-135.155 474.387 -126.972
272.3 442.729 15.6438
196.806 484.341 21.5107
133.048 471.622 -125.947
167.387 481.429 -53.5713
214.559 438.798 -124.171
121.577 510.06 22.1206
46.9986 521.958 20.2911
-47.3684 329.473 -364.667
-0.590839 378.027 -321.805
46.0365 329.058 -364.24
-89.408 449.795 -207.422
-47.2171 420.019 -266.993
-136.496 407.03 -258.941
133.901 404.805 -257.355
45.703 419.489 -266.692
87.4424 448.127 -206.734
-1.16382 512.063 -56.7143
45.2003 486.241 -135.075
-47.2676 487.554 -135.336
-341.191 419.49 -35.6134
-354.611 403.078 36.9006
-270.473 402.212 -175.122
-310.144 416.996 -107.318
-454.497 327.176 -48.3615
-388.141 379.56 -80.015
-424.752 324.853 -123.628
-76.1393 253.762 -410.984
-123.264 303.392 -368.915
-274.301 231.21 -339.49
-199.474 269.93 -361.241
-221.26 186.708 -393.562
-170.528 345.631 -314.791
-216.775 376.2 -252.689
-507.543 57.6561 -186.511
-473.827 101.46 -240.429
-456.481 29.4409 -256.985
-456.733 247.623 -174.737
-471.279 175.687 -210.717
-506.826 197.587 -127.156
-362.648 113.123 -342.842
-421.475 146.785 -285.801
-362.673 187.2 -316.479
-309.041 346.27 -233.351
-340.744 270.924 -281.701
-389.466 302.529 -207.853
-398.443 362.452 80.6254
-496.792 273.944 -3.98676
-455.641 323.049 34.8202
-436.377 309.417 123.186
-460.121 254.412 158.387
-521.263 -16.6804 -134.589
-540.597 58.1173 -113.71
-555.3 60.1897 32.4823
-559.491 61.3249 -38.4007
-544.98 -18.8162 11.345
-549.074 130.922 -84.4079
-533.924 198.416 -49.9903
-494.435 31.8487 293.694
-494.529 -38.5025 318.568
-472.865 173.51 208.346
-486.379 103.563 257.486
-534.025 -38.7044 169.513
-515.227 34.5819 213.223
-531.775 46.0315 124.18
-531.999 200.884 35.7457
-547.941 129.326 75.0747
-513.325 195.563 117.949
305.422 402.807 210.061
335.852 395.441 131.962
239.905 379.879 340.389
274.711 396.371 279.317
399.176 293.915 208.457
340.552 350.715 250.964
364.526 290.763 287.229
66.7757 219.703 568.431
108.811 265.767 520.594
243.892 201.527 500.71
178.731 235.459 514.113
199.489 160.641 552.436
153.743 311.099 468.038
193.092 345.835 412.639
455.692 32.5254 358.956
418.516 75.0077 404.634
416.981 6.53581 431.007
393.739 208.104 337.081
410.497 144.273 372.845
438.523 163.002 297.005
323.07 87.8816 506.029
370.852 118.508 444.448
318.151 156.708 474.674
265.699 312.282 390.586
293.463 233.248 438.293
334.233 263.362 363.667
-70.5682 157.114 607.734
-1.25123 179.729 600.924
-205.373 93.4776 586.778
-140.55 126.494 603.179
-1.11947 41.3479 649.812
-72.0258 84.6723 635.144
-72.0901 11.5875 649.257
-428.24 -80.3212 436.319
-387.883 -36.2115 483.297
-283.608 -131.512 561.71
-339.412 -82.8981 527.535
-334.161 -178.192 523.543
-337.556 7.67092 525.11
-282.063 47.8051 556.47
-0.868127 -280.627 634.242
-77.0995 -253.979 635.78
-76.0397 -327.133 611.666
-72.6715 -84.5349 651.625
-75.6302 -170.706 643.454
-0.557461 -117.032 653.867
-220.039 -260.003 592.426
-152.449 -221.113 627.854
-213.691 -185.931 603.833
-215.669 9.25101 600.399
-217.465 -86.8368 604.217
-143.204 -36.1284 633.902
-504.381 -109.173 294.304
-472.003 -108.279 363.832
-536.884 -109.798 141.953
-527.925 -110.693 219.103
-464.035 -250.211 307.81
-501.849 -181.186 263.279
-491.205 -249.939 230.027
-484.641 -96.5246 -173.22
-515.663 -97.5531 -104.36
-490.133 -244.506 -33.3204
-507.691 -176.083 -71.1039
-465.755 -242.092 -109.204
-535.343 -101.725 -29.3304
-542.329 -106.604 48.4338
-344.504 -471.743 148.232
-393.333 -430.691 101.249
-344.006 -467.722 58.1717
-466.891 -325.696 185.015
-436.027 -380.855 144.858
-422.153 -375.123 233.459
-419.778 -367.94 -29.6492
-434.638 -378.619 56.5915
-464.749 -322.617 15.1679
-531.398 -183.538 97.6277
-505.084 -256.337 55.1643
-506.057 -257.959 143.507
-407.939 -17.6464 -298.392
-441.515 -65.2264 -246.602
-301.292 69.0232 -377.547
-360.99 29.059 -342.546
-336.347 -159.374 -316.73
-349.512 -67.5626 -330.774
-289.22 -114.049 -360.764
-0.584259 205.856 -439.833
-75.49 178.707 -443.737
-72.1982 29.3789 -466.266
-75.6467 101.177 -467.252
-0.699785 57.4992 -474.788
-152.35 145.361 -437.151
-221.808 112.69 -419.271
-88.7261 -285.92 -353.115
-86.1792 -216.844 -387.152
-0.146228 -232.526 -368.658
-211.994 -159.316 -384.866
-149.549 -191.794 -394.283
-210.591 -234.197 -357.172
-0.864793 -82.4582 -446.252
-78.3399 -132.001 -418.577
-70.5216 -59.7134 -449.414
-222.048 29.6718 -414.721
[...]
POINT_DATA 642
SCALARS Mean_Curvature double 1
LOOKUP_TABLE default
0.00337429
0.0023936
0.00437869
0.00391762
0.00548023
0.00421533
-0.00326378
0.00466905
0.00348017
0.00416787
0.00417713
0.0044027
-0.000129338
0.00324097
0.00370303
0.00374706
0.00122497
0.00317671
0.00328734
0.00223761
0.0044051
0.00311844
0.00334479
0.000237197
0.00443656
0.00300141
0.00333555
0.00298467
0.00520577
0.00328012
0.00454894
0.00320249
0.00318237
0.00464508
0.00360812
0.00369528
0.00311464
0.00560672
0.00462824
0.00343348
0.00345144
0.00411109
0.00258286
0.00409345
0.004345
0.00386203
0.00348352
0.00366848
0.00383473
0.00295471
0.00406148
0.00474295
0.00340884
0.00378623
0.00152367
0.00426359
0.00453763
0.00434255
0.00356811
0.000439935
0.00172694
0.0030206
0.00394133
0.00407999
0.00398469
0.00414655
0.00556404
0.00373496
0.00147983
0.00620709
0.00413966
0.00414693
0.00541116
0.00272764
0.00752507
-0.000188196
0.0029263
0.00384693
0.00194213
0.00374962
0.00301943
0.00379868
0.00358255
0.00390157
0.00446869
0.00428764
0.00179561
0.00349055
0.00213585
0.00163483
0.00368476
0.00311019
0.00300413
0.00380702
0.00223681
0.00304122
0.00420416
0.00345201
0.000758071
0.00303523
0.00543107
0.00519349
0.00641287
0.00401441
-0.00317439
0.00090997
0.00363911
0.00509371
0.00395068
0.00517001
0.00420439
0.0044479
0.00336745
0.00353467
0.00301199
0.00278195
0.00345698
0.00308993
0.00411139
0.00406821
0.00461316
0.00468082
0.0023831
0.00427821
0.0038817
0.00248411
0.00473682
0.00387835
0.00329878
0.00298183
0.0025833
0.00258316
0.00377783
-0.00568296
0.00325671
0.00396367
0.00337213
0.00541809
0.00363985
0.00384686
0.00374393
0.00338893
0.00421942
0.00195995
0.00374357
0.00316794
0.00260431
0.00215083
0.00399659
0.00420718
0.00365081
0.00395435
0.00326189
0.00330384
0.00388067
0.00371164
0.00160807
0.00328325
0.00560052
-0.00035478
0.0062828
0.00510102
0.00261653
0.0041455
0.00424556
0.003762
0.00441693
0.00295849
0.0044604
0.00443084
0.00391559
0.00368352
0.00380457
0.00372702
0.00369269
0.00388523
0.00384287
0.00296167
0.00376501
0.00239825
0.00241487
0.00245531
0.00419744
0.00309515
0.0035893
0.00320706
0.0033413
0.00217751
0.00266046
0.00154984
0.00248567
0.00276416
0.00437164
0.00344929
0.00453147
0.00443859
0.00538214
0.00431119
0.00265186
0.00248187
0.00298248
0.00332902
0.00333632
0.00314166
0.00323262
0.00313237
0.00316491
0.0041446
0.00407124
0.00378513
0.0037237
0.005185
0.00442376
0.00444781
0.00435219
0.00322735
0.00434376
0.00200598
0.00346587
0.000313506
0.00358228
0.00362731
0.00148663
0.00293559
0.00359459
0.000217618
0.00377532
0.0034859
0.00293818
0.000458792
0.00382122
0.0037039
0.00398504
0.00396575
0.00413441
0.00346756
0.00376725
0.00396047
0.00385936
0.00395775
0.00347637
0.00356956
0.0033852
0.0035277
0.00695093
0.00146024
0.00283845
0.00511214
0.00641074
0.00541455
0.00362673
0.00389098
0.00398953
0.000933991
0.00389302
0.00305779
0.00391884
0.00245679
0.00401845
0.00628868
0.00387769
0.00406957
0.00373389
0.00299187
0.00661193
0.00512054
0.00436901
0.00454231
0.00458535
0.00418265
0.0019469
0.00507921
0.00487742
0.00219168
0.00201208
0.00312331
0.00451157
0.00367184
0.00641141
-0.000450338
0.00680557
0.00573576
0.00349283
0.00354294
-0.000354324
0.00267274
0.00237942
0.00182183
-0.000508266
0.00442333
0.00688348
0.00544392
0.00405872
0.00200577
0.00379697
0.0044451
0.00158884
0.00450512
0.00239733
0.00405345
0.00241528
0.00274874
0.00219381
0.00298762
0.00358309
0.00311295
0.00377491
0.00379237
0.00400698
0.00300691
0.00387381
0.00339838
0.0037888
0.00381456
0.00363566
0.00267323
0.00269717
0.00188185
0.00451867
0.00431496
0.00353625
0.00433706
0.00442096
0.00450326
0.00437056
0.00406641
0.00377395
0.00046859
0.00339181
0.00369468
0.0039011
0.00350854
0.00486402
0.00463257
0.00425373
0.0037724
0.00181554
0.00263039
0.00647223
0.00619542
0.003302
0.00296547
0.00265605
0.00304285
0.00415577
0.0036194
0.00223784
0.00511662
0.00291846
0.00296298
0.00329936
0.00238173
0.00255447
0.00236746
0.00411735
0.00309429
0.00357565
0.00344377
0.00325408
0.00433199
0.00402983
0.00374662
0.00401792
0.00294693
0.00334147
0.00398259
0.00360664
0.00456555
0.00387614
0.00428936
0.00388439
0.00170408
0.00293749
0.00411483
0.00313262
0.00199621
0.00338542
0.00373945
0.0030541
0.00415182
0.00604698
0.00531429
0.00393014
0.00594624
0.00292192
0.00329248
-0.00176255
0.00302518
0.00475004
0.00299951
0.00506174
0.00118325
0.0043716
0.00210697
0.00190396
0.00223387
0.00390508
0.00398686
0.00203053
0.00392954
0.00257771
0.00368525
0.0023682
0.00303189
0.00670918
0.00356997
0.00544405
0.00632598
0.00459798
0.00448483
0.00461066
0.00519595
0.00524743
0.00421924
0.00452472
0.00500005
0.0033841
0.00409159
0.00403186
0.00436197
0.00418606
0.00447837
0.0031122
0.00314126
0.00334358
0.00315876
0.00298972
0.00341185
0.0048744
0.00414937
0.00426921
0.00358995
0.0025426
0.00373822
0.00368272
0.00356904
0.00140977
0.00293781
0.0034358
0.00339845
0.00446613
0.00358103
0.00335127
0.00391377
0.00385177
0.00384267
0.0057479
0.00405444
0.00453331
0.00328467
0.00386466
0.00406409
0.00214093
0.00289242
0.00313423
0.00621976
0.00397243
0.00349259
0.00377033
0.00435924
0.00435527
0.00395632
0.00443752
0.00401601
0.0046194
0.0038891
0.0025002
0.00256778
0.00217634
0.00396136
0.00375139
0.0043651
0.00438995
0.00560204
0.00324633
0.00538182
0.00544169
0.00658617
0.00273099
0.00335889
0.00127291
0.00471442
0.00316484
0.00381092
0.00585366
0.00365233
0.00327691
0.00543347
0.00505596
0.00302552
0.00410473
0.0012511
0.00531018
-0.0055874
0.00513697
0.00418766
0.00547929
0.00636374
0.00601292
0.00531886
0.00366089
-0.0037209
0.0037558
0.0038772
0.00323156
0.00374288
0.00368437
0.00381706
0.00337079
0.00370036
0.00389482
0.00368812
0.00571858
0.00396011
0.0034845
0.0033102
0.00513508
0.00326129
0.00288607
0.00376972
0.00174899
0.00363368
0.00328697
0.00324715
0.00293889
0.00316308
0.00377417
0.00386745
0.00390994
0.00387729
0.00399267
0.00321157
0.0040067
0.00382422
0.00358503
0.00243044
0.00310645
0.0042603
0.00392168
0.000361699
0.00412298
0.0025922
0.00455226
0.00282682
0.00332879
0.00340356
0.00228705
0.00469819
0.00172639
0.00361874
0.00220457
0.00448231
0.00516815
0.00251501
0.00623636
0.00142184
0.00464484
0.00404673
0.00376447
0.00409372
0.00364475
0.00129649
0.00455294
0.00430545
0.00456504
0.00419638
0.00306157
0.00271245
0.00299644
0.00223542
0.00319984
0.00412352
0.00389735
0.00324536
0.00333095
0.00383225
0.00414598
0.00380693
0.00391288
0.00388369
0.00217396
0.00344366
0.00371942
0.0043653
0.00345054
0.00396916
0.00395961
0.00353405
0.00557364
0.00330889
0.00610376
0.00403907
0.00367133
0.00316036
0.0037517
0.00345956
0.00355594
0.00344157
0.00358427
0.00367019
0.0032627
0.00330383
0.00359229
0.00376593
0.00384519
0.00385417
0.00350671
0.00301583
0.0020237
0.00436109
0.00389217
0.00407548
0.00362058
0.00294761
0.00411871
0.0029855
0.00299485
0.00596221
0.00414106
0.00608361
0.00434926
0.00209853
0.0012145
0.000977547
0.00330071
0.0014628
0.00123779
0.00283271
-0.000356479
0.00526556
0.00620216
0.00588494
0.00667131
0.00315692
0.00346855
0.00245426
0.0034747
0.00448408
0.00497795
0.00547918
0.00472294
0.00521099
SCALARS CoVolArea double 1
LOOKUP_TABLE default
5275.39
5273.78
4953.38
4877.76
5187.41
4575.39
5451.55
5188.46
4973.74
4495.13
5128.21
4576.72
7024.83
6024.1
5875.86
5799.86
6437.93
6839.68
6870.86
6815.34
6760.18
6885.18
5946.12
6897.43
6265.34
6261.56
6280.76
6470.05
5744.36
6173.79
6488.2
6633.52
6270.29
6243.47
6832.19
6897.7
6280.06
5521.39
5509.38
6078.13
6145.15
6419.24
6228.65
6143.5
5550.99
5551.16
6337.72
5618.2
5714.8
6490.29
5591
6287.91
5860.2
5686.4
6521.68
5729.76
6233.36
5460.32
6742.32
6708.64
6435.32
6816.3
6318.83
6875.47
6267.65
6938.41
5779.32
6447.37
7516.21
6168.77
7098.97
5906.9
6270.22
6266.21
5983.71
7258.16
5827.78
6088.31
6126.29
5591.44
6371.32
5408.3
6128.72
5395.27
6261.41
5467.28
6154.75
6746.75
6425.21
7026.73
6211.47
6401.38
5986.71
6057.9
6651.02
6165.4
6332.96
5842.47
7323.29
6237.15
6096.27
6512.05
5070.28
6660.39
6991.4
7413.84
6432.79
5577.79
6794.33
5797.43
6899.61
6037.69
6011.43
6732.95
6047.48
6015.24
6574.54
5768.49
6561
6891.13
6109.77
6587.91
6194.46
6586.05
7234.36
6211.17
6632.72
6153.6
6589.02
5835.39
5895.66
6669.22
5373.38
7328.36
5419.22
6148.59
5758.51
5134.23
6114.49
5867.18
6283.85
6127.27
6214.01
6147.56
6335.89
6369.62
5782.07
6950.5
6509.71
6283.42
6863.05
7043.62
6713.64
6209.59
6290.71
6384.8
7069.35
6770.89
6479.68
7105.6
5840.22
5999.12
6215
5877.33
5790.15
6492.51
5711.48
6112.14
5378.81
5474.78
6056.12
5476.09
5563.85
5456.97
6163.35
5520.47
5486.34
6223.6
5624.5
6628.87
5680.67
5817.85
5431.46
6212.16
5801.32
5579.83
5619.37
5898.36
6380.42
7327.03
7319.27
7206.47
5765.35
6132.88
6031.89
5574.56
5811.09
5739.54
6559.51
5674.6
5832.72
6172.13
5815.21
5522.75
5847.17
6279.56
6071.4
5710.38
5791.74
6511.54
5700.93
5728.92
5303.65
5551.63
5946.63
7152.38
7059.44
7318.06
6554.71
6574.5
6630.79
6049.01
6590.54
6573.11
6966.86
6392.97
6332.02
7005.17
6504.68
6524.64
5979.1
6631.11
6229.96
6376.84
6199.24
6878.69
6333.8
6308.38
6268.24
6299.65
6846.22
7564.51
7650.48
7632.2
6096.32
6210.3
7075.21
6284.86
5919.62
5977.57
7038.94
6288.1
6410.28
7488.96
6734.11
6530.41
6606.54
7254.81
5911.32
6101.41
5999.02
7227.54
6500.8
6413.6
5928.96
6194.95
7028.98
7993.09
8076.24
7910.71
6293.85
6509.82
5939.39
6131.15
6838.17
6094.69
5998.99
6460.33
5779.3
6412.42
5965.73
6635.6
5855.83
5524.85
7384.04
6505.55
6296.1
6708.9
7257.74
6853.99
6958.87
7166.99
5812.75
6121.35
5972.19
5354.09
6128.28
5727.34
6541.21
5425.28
5798.18
6274.86
5852.09
5620.33
5736
6131.23
5335.05
5400.03
5313.26
6411.93
5399.28
5931.17
5357.44
5401.01
6035.81
7091.42
7127.95
7170.64
5475.97
5287.27
6223.35
5526.73
5541.54
5553.9
6305.14
5765.84
5843.15
6979.12
6173.27
6036.11
5757.03
6278.55
6068.29
6230.37
6224.75
6835.99
6497.04
6383.17
5803.36
6022.24
6676.7
7368.78
7894.34
7555.86
5744.06
5698.25
6557.93
5774.85
6004.78
5937.1
6535.82
6280.42
6336.26
6618.34
6115.79
5877.72
6450.62
6855.17
6001.38
5924.36
5726.75
6475.68
5947.69
6084.12
5792.24
5828.99
6442.03
7166.54
7205.26
7095.49
6226.9
6268
6867.06
6232.34
5964.52
6431.97
6869.43
6283.59
6430.43
6238.12
5941.11
5564.58
6244.93
6722.05
5757.49
6289.95
7094.42
6519.48
5648.17
5531.76
5757.55
6244.2
6267.98
7828.1
7563.2
7931.91
6377.02
6251.85
7202.08
6579.08
6394.29
6655.14
7231.14
6010.61
5900.71
6848.47
5873.95
5762.89
6163.34
6959.85
5780.69
5990.72
5727.3
6874.67
6137.29
5889.1
6180.87
6333.95
6969.93
7856.55
7737
7882.19
5890.19
6224.18
6073.94
6650.3
6180.05
5888.3
6034.25
6115.13
6767.14
5574.3
5994.26
5537.29
6484.66
6061.63
6119.91
5819.93
5967.19
6542.01
6419.07
6605.77
6239.18
6966.81
6549.9
6463.59
5662.14
6319.74
6495.28
7516.28
7476.18
7603.18
6296.39
6095.63
6924.36
6019.77
5838.03
6070.86
6379.37
6400.15
6631.33
7227.35
6657.38
6503.51
6631.6
7200.37
6205.15
6362.64
6235.72
6341.55
6061.38
5793.51
6166.18
6121.44
6997.75
7789.62
7805.46
7324.45
6060.26
5798.23
7149.24
5861.04
5501.81
5644.06
5693.43
5825.2
6069.69
5730.23
5626.53
5556.96
5880.85
7179.34
5839.95
6624.51
5894.02
5943.75
6101.59
4906.16
4920.42
6159.72
6018.04
8686.98
7865.8
7790.4
5857.29
5710.88
6096.35
5720.6
5669.3
5749.99
6185.92
5689.2
5045.86
6099.42
5444.02
5490.81
5206.14
5969.81
6103.07
6089.9
6111.37
6254.81
5839.38
5725.29
5899.37
5917.2
6216.14
6890.04
6889.55
6926.3
5836.06
6328.42
5738.04
5791.87
6263.04
5960.92
6156.4
6522.68
6093.79
6072.43
5820.02
6406.5
5544.92
5462.5
6309.19
5692.23
6021.01
5659.17
6466.02
7096.97
7187.84
7016.33
6201.62
6592.22
5952.11
6447.24
6750.64
5624.72
6128.36
5533.75
6011.44
6863.31
5448.75
6273.51
5526.1
5525.81
6212.38
7748.41
7310.28
7533.55
6330.78
6922.99
6242.82
6298.36
6785.45
6635.73
6679.29
6458.15
6615.01
7071.33
6192.3
6681.18
6114.56
6115.61
6543.53
7765.41
7680.58
7644.32
5026.75
6001.42
5175.67
5454.08
6252.84
5950.38
6336.12
5899.2
5881.81
6206.76
6254.37
6315.28
6023.32
5958.11
6389.3
7015.04
7048.68
7017.52
6069.97
6777.11
6262.44
6021.38
6653.66
6159.68
6283.77
6091.74
5673.29
6536.61
6399.91
6605.8
6182.67
5865.79
6225.83
7994.23
7705.89
7785.97
5793.53
6850.56
6545.43
6334.14
7191.39
5839.78
6344.38
5756.67
5629.24
6198.84
5983.48
6610.39
5850.01
5683.08
6268.92
6815.2
6649.45
6990.56
SCALARS SignedDistance double 1
LOOKUP_TABLE default
292.334
307.4
292.036
299.463
239.721
323.841
388.288
240.811
291.759
324.105
282.096
309.5
335.622
318.296
316.683
322.472
295.959
273.324
266.106
272.886
237.248
314.116
326.276
347.299
289.165
288.159
295.851
289.547
327.962
308.958
254.938
278.143
303.213
300.448
244.342
237.55
351.107
338.877
333.831
312.791
305.104
323.613
312.177
322.841
295.634
311.323
327.365
324.783
323.062
327.387
319.343
300.906
284.816
325.994
322.951
289.906
299.785
306.281
281.381
287.362
296.621
281.391
246.271
260.482
250.207
250.233
284.963
247.979
256.861
244.954
229.589
267.17
309.146
295.076
292.059
334.289
318.733
336.044
330.798
326.497
334.685
336.717
336.521
321.853
298.896
299.836
298.089
301.077
278.27
284.764
252.671
302.794
299.185
291.641
301.105
281.134
286.714
293.652
296.643
293.955
265.44
293.21
349.755
336.316
377.383
264.986
253.25
295.514
255.713
275.786
241.01
257.882
293.7
281.117
281.599
309.243
296.783
313.903
227.121
258.838
261.607
280.728
317.777
221.136
220.783
320.733
281.032
275.172
356.19
315.727
314.079
361.936
359.11
388.892
365.212
305.86
302.512
341.941
317.536
299.856
303.464
301.064
300.992
304.418
311.726
319.851
334.47
289.91
308.162
307.917
268.355
247.426
282.297
316.788
301.228
297.023
305.836
330.774
296.225
347.234
306.221
322.992
299.722
300.23
289.529
331.835
315.829
327.732
305.948
308.223
317.53
310.054
317.615
317.091
322.436
319.27
314.075
331.768
325.692
332.609
327.203
325.373
319.588
322.543
323.721
320.467
320.617
327.172
327.261
332.386
329.794
327.534
285.506
284.996
306.872
294.251
289.325
288.711
298.557
327.853
326.495
321.97
323.674
325.272
323.731
320.075
295.383
293.926
302.271
298.061
290.73
289.061
314.054
300.171
310.006
318.297
318.305
307.471
283.122
294.114
288.265
279.37
277.094
280.27
270.577
303.155
288.989
276.357
284.733
284.35
281.824
285.698
241.543
245.861
243.016
261.469
253.335
254.469
260.328
255.125
265.166
286.935
271.265
270.157
292.155
307.293
275.867
274.174
261.71
260.949
235.953
242.963
243.112
259.654
249.732
258.323
248.906
259.338
264.163
253.667
272.136
223.859
227.332
228.604
270.662
242.933
246.979
257.029
245.122
233.166
314.581
274.501
293.44
325.139
335.845
285.741
272.179
316.205
296.035
303.213
259.705
258.343
321.929
314.047
334.251
329.716
320.381
327.201
327.803
293.006
322.933
327.462
315.208
317.584
327.427
320.839
344.591
331.702
345.427
323.809
329.942
334.317
333.447
328.273
329.603
329.917
330.7
328.946
322.09
342.538
335.886
343.098
323.422
329.296
331.308
336.753
338.023
342.226
307.311
311.601
311.255
308.276
290.864
295.812
288.668
302.714
304.322
296.572
298.999
300.227
305.659
309.106
265.323
267.441
245.912
291.043
280.498
286.392
273.867
281.072
293.939
303.519
298.539
295.236
308.832
304.477
311.235
310.26
295.142
299.972
296.46
285.538
287.655
298.639
293.986
296.288
294.255
305.175
283.515
285.751
292.796
287.292
283.265
284.103
294.26
289.054
292.871
306.836
295.003
291.483
288.063
286.712
292.595
286.487
301.284
294.971
303.616
245.252
251.469
309.237
281.186
296.091
262.402
282.64
369.375
367.049
384.979
319.366
343.92
322.245
357.515
359.928
348.93
309.305
326.183
308.392
248.146
245.748
268.408
256.038
267.32
257.992
267.012
316.781
297.446
248.198
269.957
275.463
275.741
275.461
282.929
262.687
277.014
253.81
253.366
272.734
247.813
243.366
239.169
257.779
242.269
249.685
294.271
285.393
291.868
293.199
287.143
296.946
261.39
279.538
263.379
316.76
312.426
322.173
296.19
308.083
306.82
308.918
308.215
301.192
228.177
238.542
246.497
248.328
240.479
233.463
282.715
255.942
277.27
287.58
281.624
269.884
294.742
304.899
251.064
281.693
335.941
303.792
314.19
224.231
216.313
227.04
215.885
226.709
219.379
231.595
302.486
293.515
286.437
318.622
304.175
340.409
254.031
276.499
247.962
249.284
247.093
287.512
317.907
308.864
358.726
340.616
321.964
333.785
348.569
304.125
318.582
352.884
339.129
322.622
345.038
364.675
373.272
388.487
382.959
360.411
374.786
349.441
353.958
382.153
365.53
385.326
382.942
375.887
306.531
301.458
314.095
309.662
303.666
303.999
302.986
360.863
351.789
314.127
326.195
321.934
337.071
323.224
293.988
299.107
293.686
303.4
302.589
304.693
308.121
303.926
306.456
310.222
307.55
304.174
296.866
305.934
300.6
296.474
301.61
295.485
296.954
313.975
304.199
311.934
302.825
309.965
325.813
330.629
311.084
314.625
335.078
327.953
328.904
312.109
322.972
308.947
269.926
301.403
287.977
282.415
294.009
314.564
317.189
314.763
308.097
303.792
312.317
294.596
301.444
316.552
319.683
303.366
310.98
303.828
279.936
252.974
268.11
277.315
280.549
233.435
264.013
246.101
232.527
238.706
298.903
287.207
293.7
294.58
283.501
256.759
267.889
273.802
358.579
324.311
342.689
329.999
311.948
301.079
296.007
297.734
306.409
312.453
291.46
301.261
296.855
294.93
295.845
307.229
298.49
303.379
295.267
309.647
302.701
292.794
296.272
359.816
348.985
356.212
337.779
320.017
253.915
290.507
267.067
283.462
310.629
311.091
324.171
311.532
337.015
337.762
342.436
343.909
347.296
285.445
277.838
276.027
308.754
326.974
326.67
347.971
338.124
306.523
290.262
335.139
309.821
341.167
