# vtk DataFile Version 4.2
vtk output
ASCII
DATASET POLYDATA
POINTS 642 double
-186.458 282.449 91.1012
175.721 269.841 79.8954
-202.231 -339.885 121.356
188.52 -333.541 125.599
-4.35089 -297.312 457.41
-6.03672 103.548 396.296
1.20229 -197.559 -133.506
-2.59785 195.926 -267.347
314.967 23.9506 -104.85
261.359 -51.2214 284.895
-331.897 26.4587 -108.309
-283.008 -54.2609 287.473
-237.377 142.827 172.879
-162.156 40.8192 376.844
-110.425 254.478 229.425
96.9356 252.346 227.633
0.101505 325.581 75.2332
116.938 272.703 -122.583
-118.658 279.863 -125.856
-209.337 112.551 -204.117
-361.133 183.89 -64.3412
-340.602 -36.6762 57.9778
155.977 37.085 368.525
228.889 122.749 172.586
-162.978 -214.379 408.273
-2.82534 -42.203 464.657
-287.004 -214.703 -8.41455
-283.351 -234.925 216.615
-5.50362 57.6519 -267.103
-187.89 -133.537 -175.162
338.498 176.736 -62.5938
204.636 110.414 -207.38
266.136 -230.024 211.29
148.247 -210.36 401.02
106.315 -387.037 330.924
-112.775 -390.665 335.506
-2.16346 -372.041 202.622
-165.294 -282.313 -53.9985
153.35 -283.012 -54.4005
180.54 -133.735 -165.854
274.574 -208.857 -11.7913
328.346 -32.8184 50.8288
-225.211 233.953 124.33
-180.733 230.584 203.929
-150.51 291.258 168.246
-233.603 -0.0722721 341.456
-221.529 77.9229 297.047
-274.041 27.3603 254.267
-57.9265 193.681 316.204
-124.736 158.832 314.302
-68.6235 78.3115 407.971
-82.7201 311.313 165.342
-98.0721 325.289 89.666
47.2316 192.945 314.018
-0.987425 250.075 246.875
87.2457 324.126 85.2743
70.2349 311.157 166.31
134.877 284.844 166.058
-62.9045 323.916 -18.3124
-185.811 271.945 -32.4427
177.136 264.85 -27.4799
56.3849 323.495 -14.1431
-63.8717 253.47 -210.694
-3.70757 300.56 -138.155
55.4529 251.078 -209.106
-283.133 241.968 -88.5757
-304.538 224.593 -47.927
-100.101 158.143 -268.103
-183.606 211.402 -182.52
-374.78 120.525 -93.2673
-321.279 157.964 -155.657
-303.132 90.8323 -168.991
-335.57 165.725 -3.53341
-349.727 20.9232 -39.4618
-371.77 122.135 -50.2042
-307.498 70.9514 82.8936
-314.644 -68.0108 194.785
159.378 221.827 202.045
206.121 224.945 103.662
57.4926 77.2227 400.701
115.531 153.615 309.952
255.9 28.9408 251.779
210.596 73.5894 291.347
220.282 -4.12943 336.023
-71.1229 11.4972 447.055
-6.42133 37.2453 447.957
-238.843 -114.333 347.516
-181.574 -48.0542 397.604
-2.11176 -193.835 459.411
-85.6033 -138.073 452.02
-100.312 -254.102 453.608
-326.959 -145.726 153.931
-296.04 -143.844 255.336
-317.48 -111.367 -61.9351
-331.633 -122.18 32.7818
-254.68 -301.554 169.563
-308.525 -235.315 106.935
-257.564 -283.809 59.8276
-210.479 8.18833 -196.268
-268.113 -65.9069 -143.795
-3.63285 116.156 -296.254
-84.448 107.957 -273.43
-162.103 -160.474 -160.576
-126.445 -39.0156 -215.372
7.56227 -26.4984 -184.982
174.879 202.764 -175.519
93.4569 155.313 -265.146
284.141 220.119 -41.9966
265.472 239.6 -87.8693
290.003 84.4447 -163.625
303.625 154.551 -148.706
353.934 110.156 -89.2395
239.081 -293.673 169.982
189.725 -317.236 285.618
139.176 -369.963 251.179
225.767 -104.58 341.524
220.669 -220.526 324.404
278.529 -141.743 247.312
51.0433 -356.326 415.078
139.695 -299.567 395.871
89.3906 -253.363 449.866
49.9069 -412.767 277.267
108.217 -365.851 156.6
-59.2844 -359.799 419.437
-4.09259 -423.801 351.914
-117.08 -366.444 161.649
-57.4919 -414.331 279.698
-149.115 -376.225 253.112
132.911 -318.499 45.756
163.439 -318.692 19.3072
-174.578 -322.045 24.1424
-135.374 -315.577 46.4005
133.321 -233.342 -104.02
1.28893 -220.281 -74.6213
-135.368 -231.56 -103.116
210.739 -265.123 -43.1849
244.621 -276.548 54.9155
141.488 -161.994 -161.839
162.92 -224.847 -125.159
306.689 -108.568 -58.9725
243.158 -176.358 -101.915
261.919 -65.2613 -137.634
289.64 -230.46 105.25
334.671 12.6463 -32.7118
321.299 -114.552 18.8412
302.222 -145.186 158.106
293.44 -68.3542 188.427
74.4764 -137.547 449.816
173.608 -49.1362 392.163
59.9005 9.9115 439.584
-205.344 -322.583 291.3
-152.664 -302.58 400.826
-237.862 -222.65 333.911
-174.496 -224.496 -126.941
-217.892 -269.012 -44.6603
-252.218 -178.251 -105.553
207.386 13.4974 -185.118
105.669 -53.8056 -222.942
76.5481 113.804 -271.931
290.731 58.6038 79.4709
346.962 109.5 -50.3187
311.506 163.121 -4.02478
-208.906 259.981 107.874
-187.121 268.782 154.636
-166.609 293.899 136.38
-203.633 197.643 189.969
-200.649 239.608 171.293
-230.464 205.597 135.663
-132.784 281.13 196.042
-169.135 263.588 186.973
-148.05 248.095 217.736
-260.38 -26.3124 316.296
-257.891 14.2596 299.796
-281.239 -12.538 272.506
-200.13 58.9174 337.911
-229.624 39.34 322.661
-203.83 21.3204 359.644
-262.624 69.2741 226.164
-249.599 54.3278 278.771
-231.96 103.669 246.321
-29.7134 147.805 350.841
-60.3762 132.16 357.876
-38.774 91.8581 406.835
-113.251 211.247 276.523
-90.2867 182.134 316.594
-82.313 221.841 281.001
-110.298 60.3754 395.97
-99.8042 113.545 354.945
-145.169 89.7525 350.468
-193.746 154.232 244.9
-173.052 117.004 305.259
-151.562 195.353 259.578
-131.745 312.962 136.769
-142.675 310.699 95.8615
-101.846 291.749 194.527
-115.647 306.233 169.456
-66.6814 332.879 79.8645
-94.357 322.614 131.518
-51.6293 320.736 124.033
20.0293 148.727 350.393
-3.88813 193.025 317.103
57.5999 252.623 238.888
27.4763 221.838 287.292
70.6352 220.202 277.286
-35.4953 221.01 288.364
-68.3415 252.048 243.181
125.817 305.207 89.0688
116.866 308.07 133.945
150.99 285.771 133.676
45.6805 322.047 124.745
80.7276 321.693 129.355
59.8433 332.502 80.2191
117.581 276.447 193.845
101.134 302.294 168.731
86.9736 290.319 193.924
-44.8691 285.907 197.463
40.5046 287.348 197.899
0.859014 306.846 164.283
-124.913 316.95 39.6151
-182.646 275.813 24.9923
-41.0277 332.624 33.0169
-81.316 333.147 38.2617
-152.103 279.819 -75.9034
-105.859 313.702 -18.9795
-87.6822 310.875 -75.9482
176.323 267.295 18.4101
115.907 314.01 36.7502
80.3353 305.491 -72.6217
101.474 310.48 -13.9022
152.856 269.066 -78.444
74.6462 331.426 40.1307
36.1101 335.17 33.8585
-33.0955 228.464 -243.06
-2.91897 255.717 -215.301
26.7062 227.697 -242.608
-59.0866 294.976 -134.874
-33.2339 279.587 -176.641
-91.7059 271.215 -172.369
82.9292 267.025 -169.48
25.974 278.531 -176.276
50.64 292.124 -134.503
-3.45289 324.846 -19.9729
24.9479 316.096 -82.5561
-33.754 317.463 -83.026
-259.388 248.477 -54.5106
-236.832 233.511 -1.8363
-212.115 239.851 -93.9726
-252.516 255.907 -65.5564
-333.294 208.757 -55.2722
-296.52 238.577 -64.9863
-326.544 222.166 -77.1865
-51.0461 179.509 -271.191
-82.5289 212.249 -244.443
-202.004 160.845 -201.781
-131.705 188.678 -236.224
-145.364 136.306 -256.135
-113.694 236.625 -207.49
-153.911 247.191 -162.365
-357.676 88.3494 -105.029
-342.935 108.095 -136.889
-324.258 62.8802 -141.825
-350.149 175.69 -107.247
-356.653 136.733 -129.306
-382.358 146.961 -79.8492
-277.54 106.821 -186.787
-316.837 124.544 -166.562
-287.867 138.052 -183.522
-248.534 223.964 -141.956
-272.084 187.971 -166.668
-303.794 208.778 -127.221
-258.177 207.588 29.8642
-350.763 177.763 -37.9645
-326.759 194.841 -23.4495
-273.157 181.719 43.7623
-282.702 151.043 58.5828
-346.505 24.9594 -72.4496
-372.29 94.4245 -69.9363
-352.052 72.6011 -18.2039
-367.124 94.6322 -50.3212
-346.078 -0.0518793 7.1993
-380.737 123.668 -64.6509
-378.364 141.755 -56.0139
-296.045 -14.6305 230.977
-300.687 -58.3657 245.244
-283.688 89.6682 129.616
-288.443 33.0954 198.366
-326.383 -61.0389 131.732
-307.879 -9.83402 164.779
-326.603 18.4681 59.6507
-361.042 141.454 -22.902
-348.872 112.15 -4.73876
-332.653 129.045 15.6301
168.693 261.224 150.212
196.727 247.411 91.8549
131.16 242.283 215.152
151.226 257.742 182.937
213.737 187.178 120.311
178.815 235.041 166.144
183.78 180.048 192.346
25.7399 91.8245 402.958
49.9655 133.429 354.195
137.639 87.4979 343.352
91.9731 113.388 348.563
103.485 58.7198 385.54
80.138 179.118 312.8
101.449 206.746 273.366
260.212 -9.59126 270.342
242.015 13.0088 294.934
242.979 -25.245 313.543
221.916 92.8018 246.831
235.924 52.6147 273.444
246.576 65.2078 226.726
192.585 16.4115 353.598
217.044 36.4258 315.908
189.254 55.568 330.956
139.359 186.355 258.609
163.53 111.508 301.371
180.475 140.803 249.038
-39.1624 59.4906 433.632
-6.74014 69.2583 427.722
-111.314 27.4244 415.969
-71.4728 43.8495 431.859
-6.31673 3.84927 460.705
-40.7254 23.8708 452.578
-40.2869 -9.69132 462.047
-267.749 -76.0381 317.149
-241.486 -48.8279 345.873
-174.629 -125.234 397.826
-213.416 -78.3784 375.075
-203.211 -165.165 371.747
-210.564 -23.2327 371.883
-175.26 -1.45677 389.712
-2.35292 -254.387 458.995
-58.5543 -235.504 459.711
-52.7447 -278.031 457.808
-41.2112 -81.7424 457.978
-52.3444 -164.263 458.454
-0.903009 -107.913 465.156
-129.48 -240.396 437.006
-94.7821 -217.841 450.708
-118.89 -192.525 431.823
-123.551 -18.7344 421.701
-125.83 -88.9486 427.18
-77.1082 -44.9674 451.398
-311.785 -101.77 223.578
-293.455 -95.8885 271.442
-331.352 -100.796 119.334
-327.152 -105.692 176.55
-290.382 -191.059 239.345
-317.051 -141.61 203.648
-310.336 -188.735 178.643
-325.448 -52.8415 -83.9601
-339.331 -58.4511 -46.2491
-312.021 -169.052 13.6017
-331.092 -114.986 -23.3717
-300.937 -160.331 -39.2246
-344.073 -69.2581 -4.96066
-342.943 -83.1722 48.0963
-231.392 -323.497 145.793
-262.662 -296.057 112.897
-233.111 -314.301 91.7407
-302.365 -237.844 151.427
-287.09 -268.742 133.118
-271.72 -271.232 192.737
-275.34 -250.914 24.8541
-286.893 -262.509 84.92
-301.121 -229.113 56.9468
-331.307 -146.763 95.067
-323.331 -189.86 80.3189
-326.474 -196.432 125.602
-287.283 23.3693 -156.607
-301.403 -20.2584 -127.59
-217.647 82.2266 -200.006
-265.717 57.3704 -182.411
-226.302 -103.981 -160.319
-244.839 -28.0083 -170.847
-195.988 -70.4735 -189.752
-2.94929 145.768 -292.9
-48.9258 132.5 -292.261
-36.9774 80.3436 -275.215
-41.7373 110.63 -287.546
-4.5381 97.7958 -285.401
-97.3324 123.294 -278.314
-139.24 118.406 -255.046
-118.808 -174.358 -145.271
-119.934 -117.659 -171.479
2.92761 -133.949 -139.592
-159.161 -94.9636 -195.523
-153.516 -104.597 -185.974
-168.418 -150.374 -170.684
-0.719891 39.6172 -248.16
-108.408 -21.7714 -229.404
-50.1346 26.7696 -245.173
-139.266 68.1943 -227.536
[...]
POINT_DATA 642
SCALARS Mean_Curvature double 1
LOOKUP_TABLE default
0.00856897
0.00668005
0.00860345
0.006367
0.010916
0.00446602
-0.0465894
0.0086585
0.00229126
0.00777822
0.00435314
0.00765836
-0.00247332
0.00412723
0.00251646
0.00519606
-0.00414572
0.00403825
0.00331869
-0.0024764
0.0258049
0.00914904
0.00482996
0.000244218
0.00232114
0.00787134
0.00581023
0.00415821
0.0181095
0.0122547
0.0284435
0.0110343
0.00391139
0.00188888
0.010031
0.00767235
-0.00414708
0.00350497
0.0239389
0.0046539
0.00677919
0.0117365
0.0123039
0.00820415
0.0121523
0.00797366
0.00616117
0.00555292
0.00876315
0.00549606
0.00704032
0.0107086
0.00349373
0.0090155
0.000131531
0.00529966
0.0140272
0.0120562
0.00359677
-0.00181637
-0.00229154
0.004153
0.00807807
0.00773145
0.00810836
0.0132567
0.00382247
0.00768626
0.00271711
0.0159584
0.0127951
0.00646905
0.0109989
0.00226033
-0.000227171
-0.00142074
0.00122511
0.00533007
0.0048931
0.00451277
0.00517788
0.00756072
0.006614
0.0076368
0.0107364
0.0101773
0.00416936
0.00696537
0.000709726
0.00880896
0.0164249
0.00470647
0.00536834
0.00749551
0.00101306
0.00727281
0.00967294
0.00489231
0.00134215
0.00499014
0.0326979
-0.000532059
-0.012032
-0.0373707
-0.00902431
-6.15071e-05
0.00837979
0.00477979
0.0153272
0.0083587
0.0122521
0.0236591
0.00611365
0.00486083
0.00304796
0.00600289
0.00863134
0.0065031
0.00736116
0.0100595
0.0181103
0.00873069
0.0200517
0.00986618
0.0164728
0.013015
0.00665176
0.00416464
-0.00405918
0.0238765
0.0323618
-0.0028896
-0.00309808
-0.0239312
-0.00168784
0.00660589
0.00554593
0.00111209
0.0272769
0.00813956
0.00790886
0.00760494
0.0106557
0.00503122
0.00987483
0.00366957
0.00224455
0.00802201
0.00916495
0.00846078
0.00613636
0.00868201
0.00926758
0.0468087
0.00534601
0.00749964
-0.00160906
-0.0301009
-0.00185493
-0.00303386
-0.00212563
0.00971445
0.00693863
0.0109872
0.0118072
0.000463002
0.0122454
0.00159008
0.0119448
0.0113313
0.00683246
0.00628949
0.00686281
0.00669284
0.00654126
0.0077143
0.00764397
0.00298795
0.00644221
0.00367144
0.00120549
0.00180917
0.00953977
0.00667818
0.00862462
0.00888305
0.00292214
-0.00152717
0.00259494
0.000177287
0.000951216
0.00316987
0.0133537
0.00635937
0.0100133
0.0150989
0.01152
0.0138576
0.000947304
0.00361112
0.00387758
0.00200409
0.00687933
0.00756821
0.00460811
0.00258851
0.00279898
0.0122917
0.0105677
0.00349327
0.0144215
0.0126927
0.0112234
0.0131553
0.0122133
2.40274e-06
0.00248705
0.00404217
0.00675769
0.0016248
0.00477414
0.0125478
0.00472248
0.00307438
0.00804837
0.000949515
0.00870428
0.00516307
0.00371923
7.02339e-06
0.0116102
0.00930642
0.00842781
0.00741181
0.00952544
0.00400967
0.00572886
0.00810675
0.00683678
0.0065166
0.00391011
0.000161838
0.00646732
0.00639751
0.00620682
-0.00756228
-0.0134178
0.0297995
0.0135616
0.029873
0.0234975
0.00538622
0.00848898
0.00211912
0.00553616
0.019074
0.00733154
0.00641902
0.00628089
0.0067774
0.00895223
0.00890217
0.0230401
0.0326449
0.00991958
0.0166923
0.0138325
0.0113394
0.00920347
0.0104088
0.000246852
0.00802692
0.00855514
0.000463699
-0.00430141
0.00507399
0.0191885
-0.00165987
0.0122931
0.00381646
0.0379108
0.0251178
0.00479658
0.00544466
0.00222357
0.00367617
0.00169605
0.000430026
-0.0025379
0.0193527
0.00545551
0.00639151
0.0102736
0.00928152
0.00600007
0.0115439
-0.00319946
0.0101253
-0.0025277
0.00819456
0.00178441
0.00313231
-0.000900332
0.00229039
0.00747055
0.00569734
0.00590367
0.00711617
0.00835917
0.00482487
0.00823648
0.00464094
0.00690263
0.00755642
0.00630148
0.00357039
0.00197994
0.00146228
0.012426
0.0086809
0.00565964
0.00955142
0.0117179
0.0132838
0.0129093
0.0083348
0.00596573
0.00163057
0.00632216
-0.00161231
0.00810934
0.00609422
0.000891144
0.00577734
0.00841136
-0.000191226
0.0027625
0.00743497
0.0099113
0.00782721
-0.00321838
0.00183024
0.000934448
0.00729545
0.00550542
0.00686453
0.00176548
0.0107914
0.00318393
0.0073638
0.00121123
0.00695224
0.00756533
0.000592309
0.0102813
0.002315
0.00684149
0.00834914
0.00681743
0.00939102
0.00617658
0.00699304
0.00917367
0.00457813
0.00551676
0.007908
0.00592463
0.00408373
0.00747293
0.0140865
0.0024659
0.00364307
0.00132506
0.00643951
0.00231371
0.00255332
0.00483807
0.0118637
0.0209262
0.00474018
0.010649
0.00299964
0.0323327
0.0100166
0.00164829
-0.00107005
-0.00636012
0.0299146
-0.00932351
0.0438297
0.00289864
0.0218611
-0.00161102
-0.00622159
0.00594787
0.0133134
0.00759017
0.00574622
0.00489723
0.00660779
0.0258775
0.0055286
-0.00442311
-0.00406573
0.010363
0.0252232
0.0229294
0.00965783
0.0167791
0.000474625
0.00766968
0.0151745
0.00686241
0.0143464
0.0150101
0.0111167
0.0319416
0.0120991
0.0112343
0.0130078
0.00898499
0.00996078
0.00533013
0.00845584
0.00432152
0.00409695
0.00727187
0.0055666
0.0124509
0.00551582
0.00982915
0.00555579
0.00509669
0.00322262
0.00676563
0.00160648
-0.000345336
0.00365493
0.00393886
0.00434515
0.0110802
0.0093065
0.0104217
0.00838554
0.00858563
0.00625964
0.00836888
0.0146928
0.00872584
0.00531369
0.00515697
0.00521598
0.00909374
0.0114879
0.0187575
0.00486623
0.000777379
0.0110497
0.00313287
0.0135633
0.0110172
0.00970919
0.0102928
0.00675507
0.0113012
0.00686927
0.0143334
0.00980865
0.00264029
-0.00142522
0.0120342
3.75708e-05
0.011762
0.00858123
0.0183732
0.0218868
0.0252445
-0.00129499
0.0412195
0.00329903
-0.00228422
-0.0124263
0.0399919
0.00996822
-0.00505199
0.0122996
0.0299987
-0.00384889
-0.0106337
0.0351787
-0.0096697
-0.00169645
0.0113734
-0.021649
0.0134037
-0.00293258
0.0220162
-0.00760826
-0.00647232
0.0209108
-0.000989958
-0.00886688
0.00631794
0.00581839
0.00353693
0.00605541
0.0228667
0.00749213
0.00518519
0.00716192
0.00868906
0.00210999
0.00221977
0.0137357
0.0237884
0.0302934
0.00142419
0.0454406
0.00784469
0.00688771
0.00599726
0.00650097
0.00425709
0.00429431
0.000472521
0.00434937
0.00805531
0.00832443
0.00662209
0.00755112
0.00830167
0.00464573
0.00874723
0.00934945
0.00708408
0.0027608
0.00772879
0.00861045
0.00745142
0.00732965
0.0113705
-0.00237051
0.00616797
0.00244574
0.00291248
0.0114575
0.00155243
0.00753095
-0.000474953
0.00869324
-0.00316545
0.0106536
0.00895526
-0.00322172
0.00402412
0.00374024
0.00669513
0.00859143
0.00634954
0.008879
0.00649348
0.0032909
0.0115663
0.0126238
0.0131953
0.00735302
0.00200462
0.00303168
0.0046871
-0.000564647
0.00518344
0.00868203
0.00640568
0.00615779
0.00460761
0.0082628
0.01151
0.0146813
0.00779511
0.00793739
0.00373568
0.00434315
0.00378144
0.00457533
0.00908759
0.00697167
0.00524436
0.0053928
0.00214675
0.0470863
-0.0210775
0.00527388
0.0278755
0.0023261
0.00799633
0.00523736
0.0113707
0.0303648
0.00621387
0.00536415
0.00441023
0.0045762
0.006664
0.0134194
0.00659524
0.0063009
0.00262455
0.00375387
0.00228563
0.00552097
0.00645012
-0.00291979
-0.0117868
0.0386462
0.00849551
0.0178367
0.0215766
0.00368558
0.0432467
0.0100018
0.00291197
0.00539904
-0.000501144
-0.00581514
0.00441971
0.00224562
-0.00055821
0.00249095
0.00156974
0.0170032
0.0142175
0.038741
0.0151957
-0.00326401
0.00427652
-0.00384929
0.00202807
0.00952558
0.00749921
0.00464421
0.0125667
0.00534489
SCALARS CoVolArea double 1
LOOKUP_TABLE default
2738.23
2758.58
2077.07
2111.19
1804.91
1866.49
3245.81
2146.29
2400.14
1646.36
2495.31
1575.62
6059.52
2614.12
2089.89
2014.96
3321.36
3644.75
3875.79
2810.91
1512.64
3673.39
2589.55
5797.15
2992.7
2192.31
2829.08
3165.95
1736.73
2146.42
1222.84
2046.17
2892.31
3150.65
2537.93
2750.9
4667.96
790.389
644.294
2412.27
2697.94
2777.86
2648.89
2410.85
1336.36
1824.39
2878.88
2200.16
2297.82
3306.34
2178.46
2195.55
1944.64
2228.64
3730.26
1794.62
1884.97
1306.81
2981.41
3982.43
3818.47
3059.74
2546.35
2909.62
2479.12
2313.34
2264.91
2451.64
4065.43
1233.28
2337.99
1963.49
2153.68
2865.72
1013.89
5220.72
2764.05
2543.2
2769.24
2396.84
3138.77
1891.58
2498.29
1643.24
1986.22
1300.31
2993.74
3234.19
3754.54
3646.4
1744.64
2547.29
2701.18
2452.27
3033.26
2583.2
1982.71
2357.7
4960.7
3145.66
1086.17
2670.87
1440.11
1482.86
11972.7
4523.7
2395.87
1709.52
1927.54
1714.56
2275.1
1221.3
2390.81
2900.23
2584.1
2828.05
2713.11
2342.59
2678.46
2489.34
1584.61
1837.25
1841.27
2617.54
2314.11
1881.47
1813.27
2695.19
5119.05
1748.92
1554.88
5890.71
2771.38
7924.77
3098.46
2081.14
2232.64
994.589
1307.31
2171.68
2316.59
2879.73
1931.53
2585.75
2456.66
2901.44
3016.03
3653.9
2600.33
2321.88
2940.22
2714.96
2738.6
1050.82
2273.41
2479.72
5083.99
2124.06
2908.76
5454.92
1258.75
1947.98
3074.99
1651.46
1757.98
3429.94
1753.46
3794.22
1388.18
1393.93
2147.31
1857.45
1888.36
1943.75
2564.04
1788.97
1845.7
3935.86
2146.93
3738.36
2709.24
2586.72
1894.93
2459.31
2362.65
2051.34
2566.48
3092.43
3384.61
4038.79
4065.67
3687.98
1596.32
2730.22
1936.59
1250.77
2179.85
1601.45
3247.33
2650.49
2617.86
2620.32
2540.64
2021.7
2657.17
2988.64
2871.9
1670.52
2003.68
2998.82
1520.31
1930.46
1346.67
1260.69
1693.18
3586.57
3173.53
3388.71
3621.04
4118.6
2968.93
2235.36
4099.34
3711.25
3482.39
3749.49
3210.54
3869.18
3756.9
4133.35
2035.51
2857.7
2485.21
2556.75
2423.26
3032.39
2634.8
2800.87
2872.46
2584.96
3172.44
3679.87
3586.95
3488.51
2350.83
4062.11
4160.18
2171.07
1037.9
923.632
1855.95
2629.67
2664.14
4379.16
3560.95
2614.79
3069.71
4064.61
2157.73
1690.55
2536.84
2533.38
1766.95
1361.61
1921.3
1450.98
2685.23
3822.87
3552.06
2921.98
3756.61
1292.13
2196.69
3173.04
5209.57
2851.88
1618.48
2850.15
1530.33
3087.79
627.558
959.91
2715.29
2103.88
5847.19
4073.4
3842.68
5086.6
5481.6
1318.18
2962.24
3224.21
1694.77
2613.09
2117.96
1348.5
4807.17
2366.14
4215.3
1954.39
2643.47
3191.95
3126.9
2763.28
2376.64
2464.42
1876.86
1661.87
1652.17
3398.24
1738.73
3104.77
1733.37
1685.06
2390.64
3517.1
3616.25
3780.7
1370.49
1413.18
2398.61
1567.52
1363.62
1273.72
1948.6
2281.46
2201.53
4437.12
2904.19
3269.13
1990.91
2474.97
2562.44
2628.99
2168.11
3135.35
3469.66
3314.81
1611.13
2161.31
3702.26
3372.18
4759.12
3424.27
2119.05
2261.64
3048.05
2209.62
2953.75
2440.98
2922.56
3044.14
2751.44
3342.58
2615.29
2655.43
3056.84
3238.31
2484.79
2084.19
2196.48
2499.09
2075.89
2698.06
2315.84
2020.8
2668.77
2959.45
2852.57
2457.5
2980.17
3143.49
3735.41
3088.6
2919.64
3581.64
3338.54
2221.87
1804.94
2128.4
1110.17
1154.78
1319.28
2407.87
3944.49
7489.94
9659.34
1666.44
1516.17
807.201
4072.57
5234.56
1814.53
5478.38
3803.88
4154.49
2644.25
2571.42
3738.53
3325.63
2228.52
3612.63
4015.6
3127.94
2131.9
1706.28
988.315
1007.71
2170.28
3008.18
2178.21
1521.07
1903.24
2438.14
1552.74
1638.55
1225
1821.01
2237.74
3416.75
2739.65
3604.75
2379.9
2705.21
2822.36
3086.65
2664.4
2416.22
1874.46
2402.83
2470.77
2084.61
2759.26
2207.03
2792.41
2994.9
3472.25
2615.19
2665.66
2978.69
2351.15
2442.35
2116.4
2749.39
2578.07
2757.94
1669.98
1851.43
2088.44
3359.53
2949.09
3142.41
2769.76
2495.35
2014.34
2065.27
2618.8
2199.82
2877.32
2268.33
2464.35
2634.6
2581.37
2763.63
2601.29
2650.88
2448.15
2726.43
3129.53
2898.98
2122.02
2892.63
2109.91
2027.46
2114.9
1894.01
1849.75
2034.25
1495.43
2405.58
8309.81
1774.38
928.432
923.925
1507.37
2113.65
1376.82
1947.6
1240.49
879.607
2417.17
8822.07
3620.4
6478.49
3738.73
3055.67
4074.66
943.289
1261.09
4219.71
3372.76
11640.9
8362.51
8117.01
2486.05
2336.38
1407.77
1906.51
2164.95
2159.23
2165.54
3469.69
1252.15
1764.51
825.975
1146.41
693.754
872.852
2812.75
2553.71
2836.46
2387.34
2335.8
2413.05
2860.84
2501.4
2373.63
2103.52
2304.26
2416.14
2109.98
2607.86
1963.48
1941.05
2246.72
2774.67
2523.5
2853.37
2315.21
2380.88
2036.08
2943.01
1942.51
2289.38
2544.67
1995.27
3349.88
2262.81
3360.15
2832.29
3619.97
2637.22
2395.93
3723.4
2111.5
3070.05
2776.42
1813.9
2241.51
1635.96
2502.31
3953.69
1437.83
1985.58
1325.3
1783.86
2584.02
4458.09
3376.55
3750.6
2980.64
2711.95
2539.93
2837.92
3204.8
2490.56
2169.16
2068.06
2718.96
2945.28
2920.98
3120.03
2727.74
2728.63
2600.01
3262.42
3103.27
3434.61
1643.31
748.458
864.199
705.39
1554.69
2559.71
2410.81
2473.17
1995.43
1303.19
2881.21
2510.92
2646.42
2486.78
2584.74
2024.33
2632.97
2380.83
2687.47
3638.55
3421.75
2756.65
3252.39
5948.03
2075.66
3898.38
1020.21
2168.83
1721.4
2090.06
1133.97
1009.74
2443.06
5116.85
4895.8
6048.31
2859.25
4483.67
4929.87
4024.64
5409.54
1451.65
900.16
635.346
1367.19
2426.39
2666.82
4900.79
2986.26
1767.63
1214.2
3147.37
1520.29
3435.8
SCALARS SignedDistance double 1
LOOKUP_TABLE default
94.1126
106.794
94.3172
93.0191
84.3986
105.088
207.8
74.3377
91.8042
101.97
89.4292
96.381
106.969
99.9711
103.992
104.885
94.4749
89.0707
85.703
109.538
89.4571
101.645
101.388
108.81
93.4295
92.261
91.7327
89.7516
123.919
111.764
95.4558
116.53
95.0526
96.4845
75.6
73.5418
144.372
119.67
118.197
101.436
95.3039
103.604
106.72
106.377
90.5033
95.4031
100.774
101.288
100.447
102.081
99.9797
96.3358
91.9993
99.6492
103.024
91.5361
95.6518
94.4029
92.7637
99.5855
106.351
92.0781
75.8679
82.7686
76.9138
91.427
94.4489
79.1894
87.5662
88.4757
71.1209
84.6811
105.839
99.9609
101.147
110.25
101.096
111.779
116.926
103.057
103.767
104.786
102.897
99.0439
92.8756
94.1765
92.3324
93.1753
88.5239
89.2464
89.1816
97.0603
93.5865
89.2555
99.1265
85.1705
88.2017
90.4515
100.131
92.0214
103.021
101.812
120.226
124.666
173.318
94.2714
80.4252
98.8446
90.3797
88.8535
72.9514
93.8389
90.6252
87.6185
88.4232
95.838
94.1275
99.4367
70.5869
83.7768
92.2326
104.499
121.009
67.4522
79.8852
123.581
108.951
89.5905
119.616
117.361
121.645
128.955
119.894
199.68
129.13
93.0527
92.197
116.905
114.981
91.4431
91.7184
93.4764
93.5281
105.274
98.9048
104.241
105.502
91.0575
95.5579
97.1189
83.0109
78.0094
87.8212
119.949
92.9084
89.6458
99.0133
135.647
98.5801
117.041
103.249
109.233
99.5515
93.0559
87.9505
111.523
101.397
113.155
95.1601
96.2176
102.66
96.251
98.5012
98.714
98.7474
97.7928
96.3384
103.713
100.334
104.464
109.69
109.821
101.285
98.6485
98.5344
97.8905
101.216
107.206
104.789
105.529
105.414
102.091
86.9038
87.8123
98.211
92.547
96.1812
91.7784
94.0794
109.8
100.825
105.086
99.5598
99.9755
99.5451
104.006
92.1644
89.1063
93.4631
94.9875
90.4533
94.6902
97.6768
92.3927
96.711
101.255
104.305
96.6647
88.0079
98.9222
98.2052
88.6844
89.9747
87.2903
83.9307
109.379
91.1796
85.9053
90.2875
97.6935
87.0894
97.201
73.5719
76.1836
73.5533
82.3376
79.7445
79.0565
81.1081
80.9513
83.2678
93.804
85.1434
86.3214
108.892
104.005
100.933
113.648
91.113
96.1611
87.809
77.0048
73.6993
92.9342
76.8416
94.863
76.1204
82.2101
83.7282
80.6789
86.0718
66.5294
79.137
91.0484
91.9471
84.1739
89.227
99.6801
87.0226
73.4281
110.699
94.4799
98.7316
112.953
112.439
92.7682
97.153
103.154
99.9644
104.273
102.067
99.9389
101.544
100.175
103.755
103.104
102.99
105.655
108.967
106.132
108.791
113.033
99.319
114.263
106.324
101.168
112.997
106.964
112.508
103.189
109.912
105.474
107.869
103.724
100.741
101.449
103.174
101.607
99.8553
106.928
102.873
107.716
99.6226
100.721
101.559
104.923
107.232
109.121
95.8953
98.2049
98.9971
95.6456
91.3498
91.5077
89.2269
94.5198
94.7172
94.5007
92.7104
95.8997
93.969
96.8691
86.1257
87.1477
84.8092
96.4212
89.1256
96.2072
92.8135
93.4504
93.965
98.3375
98.3246
95.2265
98.3922
95.656
99.4585
100.703
92.6532
92.8685
96.7572
86.6704
91.0463
96.6364
92.4123
95.1245
95.7712
100.474
87.1183
88.3108
91.2221
89.4581
87.1407
88.2056
89.7626
88.662
90.2551
99.3861
95.5308
95.7005
91.7128
90.228
109.018
94.7126
93.8947
92.3206
97.4067
85.7234
97.5359
113.047
103.094
105.461
99.4968
99.6959
139.242
132.75
191.783
119.225
119.208
121.962
130.653
141.087
144.717
113.866
143.82
116.356
75.6458
77.7707
92.8593
78.4024
103.142
80.9857
103.215
112.355
106.523
92.249
97.8002
94.8097
104.831
108.337
89.0913
86.2046
89.763
86.7676
83.0654
93.0553
97.9613
78.6053
73.1688
95.8757
72.8361
80.2733
90.4139
88.9522
91.2617
92.5998
87.9033
92.4765
90.2243
85.9391
87.1407
98.8568
97.8953
103.198
93.7001
98.3006
98.1565
96.2843
96.8992
94.8484
75.3877
74.1844
84.4395
78.4321
74.0918
72.1442
95.862
88.1199
94.1094
89.6155
89.4614
87.1078
104.064
109.598
92.5344
95.4737
122.883
111.829
117.915
73.8115
66.2279
81.0958
65.331
69.7539
67.1165
79.2556
114.067
108.489
92.0353
122.225
116.665
128.378
85.9347
98.7353
96.1973
103.545
106.756
108.712
118.306
101.14
131.451
118.615
120.464
119.538
120.693
109.457
120.084
122.869
121.332
122.104
120.107
142.573
144.972
195.031
166.132
119.33
136.606
117.696
120.032
149.27
126.713
195.426
161.187
147.26
94.7864
93.363
112.693
99.2518
93.816
92.272
91.1491
124.193
119.754
106.761
116.425
116.235
116.31
118.757
89.3175
92.2096
92.2841
93.3832
94.2532
97.4629
97.549
97.3894
93.0076
99.5421
94.5835
92.1047
91.1876
95.9269
91.7545
90.686
93.4924
96.3115
94.1713
98.8269
98.3547
104.053
95.2341
102.797
104.576
104.695
101.401
99.3053
109.142
104.657
106.996
102.885
105.366
102.163
91.6687
95.4414
96.0522
90.5515
100.571
97.2927
98.5461
97.108
95.4783
96.1679
97.657
92.4124
94.1741
99.008
101.911
97.4972
99.9983
99.9989
87.4218
81.0614
83.5291
86.7953
88.6452
74.0279
91.6731
83.0846
71.2901
73.6512
92.1617
91.6391
94.4931
98.2907
89.7075
81.2423
86.7182
85.5087
126.759
120.593
118.017
120.105
118.227
96.09
89.1531
91.1979
106.445
118.07
90.2319
92.9465
92.2054
91.6367
90.447
107.639
90.7297
96.6526
92.9213
96.0039
97.5994
92.9199
107.572
122.329
156.888
149.954
119.131
116.835
98.546
102.923
98.6915
103.132
111.539
108.025
140.494
108.735
106.585
110.478
109.138
108.554
109.3
100.604
101.676
104.208
101.989
110.001
116.519
115.287
115.612
103.571
98.7829
110.291
108.229
114.116
