# vtk DataFile Version 4.2
vtk output
ASCII
DATASET POLYDATA
POINTS 642 double
-165.33 256.042 91.7323
150.753 241.396 78.1231
-188.362 -311.048 125.986
171.938 -305.768 130.347
-5.09779 -292.558 426.325
-7.4146 76.785 369.086
1.51766 -163.608 -104.132
-3.14917 181.751 -243.676
285.54 32.5566 -90.0664
226.674 -54.5618 270.071
-304.002 36.2452 -92.9765
-251.16 -59.0489 271.779
-204.091 125.583 159.389
-144.471 23.1448 349.49
-100.902 226.479 202.669
84.5176 225.912 201.326
0.812873 290.754 70.2606
104.597 243.875 -112.085
-106.264 252.198 -115.691
-190.242 112.022 -167.022
-335.845 165.987 -70.0766
-304.707 -40.9767 49.8508
137.818 19.5291 340.496
195.968 102.727 159.984
-142.638 -217.5 380.064
-3.76143 -42.394 430.507
-259.122 -199.697 2.07214
-254.204 -223.053 206.752
-4.98888 79.1345 -231.572
-179.242 -120.717 -143.852
309.949 160.162 -70.4621
185.31 98.1946 -175.173
234.895 -217.699 200.857
125.89 -211.7 372.742
91.9054 -366.178 322.838
-99.5486 -369.952 327.178
-1.45428 -332.485 223.804
-185.328 -254.368 -35.8049
172.179 -255.295 -36.2442
166.279 -123.038 -135.625
245.128 -193.818 -2.84174
291.756 -35.8322 40.424
-192.724 218.047 113.323
-154.254 214.254 181.504
-135.103 266.252 153.407
-208.155 -10.1571 319.193
-196.97 57.2419 278.217
-241.332 13.0316 242.178
-53.9994 169.746 288.184
-106.858 139.474 287.959
-55.3603 55.4909 382.403
-83.5051 279.825 149.581
-89.7331 292.282 87.7257
40.7186 169.475 286.576
-1.44547 218.883 224.669
75.363 292.305 82.7617
68.6717 279.979 150.731
116.159 260.153 151.311
-59.5714 289.983 -13.2084
-173.154 238.608 -30.2615
162.346 228.355 -25.6161
51.155 290.399 -7.75322
-58.6472 231.659 -193.665
-4.5133 271.811 -126.471
48.395 229.209 -192.286
-274.848 213.187 -81.1459
-288.966 198.369 -62.8936
-91.0568 149.544 -244.531
-171.659 193.903 -160.918
-346.539 128.034 -84.0512
-307.002 149.806 -137.263
-286.053 97.299 -144.173
-309.729 150.478 -26.8272
-313.729 27.7853 -38.2375
-339.872 127.924 -69.0815
-270.756 63.9412 68.2592
-278.482 -75.4543 186.408
129.072 204.266 179.197
168.583 206.871 88.8919
42.1603 55.0036 374.043
96.4279 133.617 283.659
221.07 15.7697 240.589
185.203 52.8055 272.332
193.374 -14.8771 313.619
-56.8298 2.39115 417.416
-8.21892 21.1888 417.034
-214.047 -111.495 323.795
-163.734 -51.2532 368.208
-2.53982 -193.537 426.318
-73.8624 -138.932 421.332
-89.6759 -253.56 422.803
-291.791 -141.911 148.323
-264.68 -138.611 241.054
-290.196 -99.3682 -48.3932
-297.092 -112.308 35.804
-231.882 -280.358 165.96
-279.64 -219.975 109.047
-235.968 -259.59 68.9783
-196.073 12.204 -162.839
-247.308 -56.8126 -118.154
-4.94336 129.013 -261.257
-73.5561 126.134 -242.749
-178.639 -141.376 -124.453
-116.437 -34.9447 -189.389
12.0943 0.60675 -150.43
162.168 185.229 -151.787
83.1473 146.715 -241.577
265.397 193.848 -57.4969
253.428 211.386 -81.4165
270.783 92.2807 -138.126
286.402 145.715 -130.572
323.016 114.42 -82.5905
213.7 -271.855 166.8
164.617 -299.039 275.989
122.12 -342.415 252.036
198.747 -101.136 318.738
191.934 -213.721 305.997
245.336 -137.927 232.17
41.9631 -340.403 396.417
117.954 -288.535 377.562
75.4961 -253.74 419.558
46.7496 -378.207 291.149
107.691 -329.124 166.585
-51.9684 -344.568 401.662
-5.47023 -400.704 344.374
-123.062 -326.899 178.44
-57.5182 -379.249 297.269
-132.953 -348.324 255.723
149.73 -282.341 63.3138
163.105 -288.859 29.9265
-177.776 -291.443 35.7021
-148.036 -275.469 62.7119
144.932 -203.145 -75.7892
2.84152 -203.598 -86.5956
-146.786 -200.128 -74.0172
192.41 -241.993 -28.6489
221.66 -252.413 62.7065
158.364 -143.216 -127.513
162.425 -200.581 -96.3802
278.381 -96.3155 -45.6092
220.295 -162.245 -81.5293
242.076 -56.1353 -111.459
258.393 -216.697 106.687
298.258 17.8059 -30.1069
286.999 -103.061 18.4232
263.707 -141.994 154.506
255.635 -75.1648 179.819
61.1971 -138.341 419.202
154.153 -52.9198 362.863
43.493 0.751493 409.114
-182 -304.44 283.077
-133.839 -291.19 383.217
-211.649 -216.456 317.004
-178.77 -203.174 -100.353
-201.399 -246.835 -30.7038
-230.344 -164.085 -85.3661
192.745 19.5127 -152.057
96.1925 -42.0485 -193.534
65.3515 132.12 -242.94
253.204 48.6393 63.3341
313.568 109.139 -69.4703
282.974 148.032 -27.4658
-182.809 237.693 103.691
-163.814 247.604 142.986
-148.045 268.472 129.923
-168.779 183.185 171.334
-171.982 225.346 154.049
-193.753 193.817 118.798
-121.605 257.312 173.777
-149.196 243.247 167.391
-131.674 226.662 193.407
-231.194 -33.6717 296.727
-228.164 1.83625 282.416
-248.734 -22.0684 258.668
-179.968 39.5405 314.431
-204.31 23.5101 302.191
-183.185 7.36498 334.157
-230.617 51.1686 214.557
-220.412 36.8671 263.609
-202.47 83.2351 231.561
-26.7029 122.441 320.164
-49.6074 106.13 326.548
-33.2295 66.1936 380.304
-98.0759 188.246 253.088
-79.0737 161.215 289.137
-74.9778 195.042 258.101
-93.237 39.8886 369.554
-85.4566 90.253 324.86
-128.093 67.8936 323.549
-166.886 134.291 224.061
-150.537 94.9636 281.326
-129.362 176.236 236.407
-120.924 283.858 130.271
-128.47 281.818 96.2681
-98.7779 264.236 171.787
-108.856 276.992 153.684
-66.4416 297.474 75.4823
-91.9375 289.663 124.059
-53.986 286.94 115.65
15.6815 123.803 319.865
-4.35078 168.734 288.85
53.3881 222.066 214.464
24.7106 193.473 263.933
60.6308 193.467 254.001
-34.5171 192.514 264.961
-65.7046 221.481 219.966
107.771 276.359 88.2957
102.303 279.417 127.732
129.148 260.407 127.286
47.8617 287.68 116.376
75.4651 289.266 122.09
57.826 297.993 75.7644
102.444 253.17 171.783
90.3203 274.22 153.744
81.0499 263.642 171.378
-45.9741 255.879 175.028
41.3625 256.812 174.166
1.28879 274.958 148.249
-110.692 287.98 42.1511
-161.947 245.771 26.4287
-42.0717 296.066 34.695
-76.3402 301.106 40.2897
-137.992 250.828 -67.5307
-94.8511 283.872 -13.3325
-78.9879 281.895 -68.7408
153.437 234.166 18.2185
99.141 285.271 38.5479
70.0475 276.286 -64.7274
88.4513 280.664 -7.37109
139.887 237.059 -72.2954
67.0071 300.12 42.1005
36.2252 299.645 35.4918
-30.5456 210.774 -222.553
-3.59395 233.126 -198.201
22.7383 210.126 -222.393
-53.457 266.878 -123.694
-30.9889 253.584 -162.553
-83.4682 246.541 -159.608
73.0373 241.891 -156.422
21.9654 252.28 -162.102
43.1568 264.126 -123.493
-3.44471 290.213 -15.4011
21.2012 285.552 -75.4752
-31.7532 286.327 -76.0931
-248.574 222.566 -60.5492
-212.512 206.361 -14.6425
-203.535 206.942 -77.1191
-245.655 223.978 -59.6461
-313.573 185.954 -69.0852
-282.665 208.471 -73.9815
-308.079 197.736 -77.4126
-46.2889 166.827 -246.456
-75.0594 196.672 -223.427
-188.352 152.883 -175.23
-118.773 174.882 -215.178
-127.932 137.141 -228.198
-102.998 217.379 -190.019
-141.552 223.303 -149.521
-332.077 97.574 -92.5305
-320.879 115.233 -118.034
-302.096 71.9975 -121.43
-333.625 163.812 -97.4437
-334.07 135.641 -112.303
-352.102 141.7 -78.7856
-266.499 109.856 -155.596
-298.509 126.591 -141.627
-275.723 133.702 -153.886
-240.821 196.869 -126.095
-262.187 172.52 -144.04
-291.81 190.881 -113.072
-229.864 180.167 17.8829
-326.133 161.336 -54.5432
-306.067 172.533 -41.4971
-242.059 159.836 24.7222
-251.108 130.775 38.5826
-314.766 33.6567 -64.592
-338.787 104.363 -71.7364
-317.876 70.0508 -35.1037
-333.097 100.008 -63.8552
-309.196 2.15194 4.81367
-345.646 131.815 -75.312
-346.435 139.15 -73.1571
-260.586 -24.1546 221.646
-265.316 -63.825 234.135
-251.085 73.4772 116.961
-253.664 20.0067 188.999
-289.562 -67.3387 124.325
-270.36 -19.0429 156.538
-290.713 10.4575 45.5626
-328.537 136.555 -43.3118
-313.985 110.904 -24.6271
-300.225 118.292 -9.21018
141.552 240.929 138.878
163.392 223.574 82.4531
109.898 220.944 190.754
127.959 238.367 163.106
178.503 170.425 104.44
147.379 220.2 149.688
149.071 162.312 176.387
17.2224 67.0097 375.859
37.2139 109.14 323.156
119.688 66.1486 316.297
76.1593 90.9868 318.041
85.8755 38.7726 357.314
66.4463 158.03 285.447
84.1421 183.692 249.711
225.076 -17.8128 257.165
210.607 1.20812 277.639
211.75 -32.0445 294.905
191.873 71.1718 232.858
205.532 35.598 258.349
212.233 47.2421 216.391
170.364 1.95806 327.912
190.483 20.8195 294.868
167.667 36.229 306.98
115.2 165.907 236.544
139.934 88.9684 277.896
151.962 118.434 229.796
-33.5261 39.2749 404.945
-8.53402 46.7328 399.288
-93.1406 13.9518 387.157
-57.5756 27.0114 404.251
-8.18313 -4.1746 427.687
-34.9167 10.8466 421.661
-34.1955 -13.6266 429.259
-239.196 -76.7981 296.895
-215.339 -52.2302 322.427
-155.181 -124.001 368.853
-191.215 -77.8272 348.646
-179.449 -164.418 344.703
-188.561 -30.0772 345.782
-157.329 -12.1852 360.624
-2.572 -253.962 426.738
-55.3275 -235.952 427.459
-49.5828 -274.309 426.588
-35.1493 -81.7302 421.607
-48.2716 -164.422 425.41
-1.19422 -108.139 430.907
-111.032 -244.517 408.381
-82.1008 -221.68 418.952
-99.9373 -195.591 402.246
-105.594 -24.7715 389.481
-107.766 -90.2596 395.407
-64.2024 -46.4844 419.652
-277.124 -103.638 211.963
-261.208 -95.5666 256.61
-294.588 -101.224 114.721
-290.744 -108.102 169.327
-259.202 -181.787 227.352
-284.643 -136.515 193.801
-276.496 -179.091 168.065
-298.485 -45.1784 -68.887
-307.272 -52.22 -38.4179
-280.037 -156.517 21.459
-299.992 -103.472 -16.8643
-271.12 -145.072 -27.4921
-308.797 -64.3253 -3.35615
-307.035 -79.3844 46.1461
-212.569 -297.778 146.451
-240.329 -272.427 116.491
-214.605 -287.791 99.2105
-273.197 -224.125 144.437
-260.787 -249.824 131.388
-244.961 -254.599 185.149
-250.749 -230.925 34.5457
-261.592 -242.621 91.1155
-272.15 -214.039 65.1634
-294.775 -143.033 94.5782
-289.634 -180.32 86.1693
-293.676 -187.896 122.337
-267.672 32.609 -130.613
-277.843 -11.6315 -105.591
-204.784 85.8084 -162.335
-252.421 63.7035 -152.574
-207.853 -94.6771 -133.446
-227.785 -20.7476 -142.735
-181.707 -62.519 -160.724
-3.79891 140.074 -265.546
-41.9919 134.103 -259.379
-32.0104 96.4337 -240.618
-35.021 127.259 -254.61
-5.6653 115.864 -251.941
-84.8789 133.285 -246.532
-124.075 134.42 -226.242
-123.654 -156.513 -107.114
-129.788 -95.506 -133.451
3.66732 -124.02 -98.7242
-159.961 -81.7979 -167.606
-166.902 -90.6311 -166.13
-184.667 -134.238 -139.581
13.6824 73.3954 -227.847
-97.6217 -20.8615 -199.272
-47.6145 37.7712 -212.173
-124.709 77.7363 -193.83
[...]
POINT_DATA 642
SCALARS Mean_Curvature double 1
LOOKUP_TABLE default
0.0115151
0.0141535
0.0179208
0.00950033
0.00734763
0.00356726
0.0869473
0.00974279
0.00258637
0.00877726
0.00442287
0.00930476
-0.00217817
0.00407699
-0.00529737
0.00428744
-0.00457114
0.0037015
0.00182043
-0.0182713
0.0487152
0.015154
0.00517124
0.000598353
0.00136604
0.0130074
0.00728547
0.00573534
0.0116096
-0.0398995
0.0536913
-0.0598135
0.00429053
0.000998144
0.0196695
0.0136886
-0.00533913
0.0784489
-0.0694304
0.0104699
0.00924263
0.0155751
0.020619
0.01059
0.0177331
0.010407
0.00817155
0.00581746
0.00993267
0.0072733
0.00868853
0.0133352
0.00270287
0.0123302
-0.000224299
0.00532711
0.0191019
0.0171682
0.00251662
-0.00440658
-0.00516869
0.00419839
0.00945927
0.00847556
0.00985693
0.0203325
0.00247818
0.0195423
0.00363755
0.0279749
0.0251672
0.0103305
0.0147556
-0.00150585
-0.00781057
-0.00259652
0.000656599
0.00197863
-0.00118797
0.00477224
0.00706235
0.00906933
0.00882161
0.00960441
0.0142203
0.0125399
0.00547476
0.00893752
0.000774099
0.0148721
0.0196447
0.00586268
0.00626759
0.01052
0.00028103
0.010686
0.0131567
0.00360395
0.000364212
0.00467544
0.037964
-0.00526878
-0.0187695
-0.0431151
-0.0120605
0.00101772
0.0216025
0.00672773
0.0282185
0.00808899
0.0184798
0.0626009
0.00788285
0.00569887
0.00532259
0.00779555
0.0108072
0.00827563
0.00859619
0.0135493
0.0235329
0.00673984
-0.039883
0.013292
0.0331792
-0.0506315
-0.00533315
0.0059323
-0.0144443
-0.0536972
-0.0143375
-0.00855214
-0.00779683
0.0268339
-0.00718146
0.00714279
0.00596125
-0.0319828
-0.00898667
0.0120301
0.0105213
0.0112305
0.0162715
0.00622675
0.0162526
0.00257466
0.00255339
0.0119065
0.0119489
0.0107108
0.00800519
0.0126812
0.0152966
0.13673
0.00944385
0.00837209
-0.00257624
0.0472543
-0.00521497
-0.00438491
-0.00672965
0.0107969
0.0101195
0.0166906
0.0172251
-0.00356105
0.0174929
-0.00340392
0.0179126
0.0163963
0.0136441
0.00683998
0.00757395
0.00838272
0.00801866
0.00959722
0.00962776
0.00294086
0.00763246
0.00407267
0.00296336
-0.00294012
0.0136001
0.0104846
0.0126445
0.0136185
0.00258686
-0.00316455
0.00328769
0.000304237
-0.000562387
0.00372678
0.021416
0.00833369
0.0119023
0.0214076
0.0112037
0.0189806
0.001184
0.0061685
0.00454088
0.00080418
0.00847924
0.0117266
0.00533735
0.00261758
0.00300633
0.0189441
0.0154214
0.00242608
0.0236996
0.015247
0.0159761
0.0211987
0.0179343
-0.00143421
-0.000687199
0.00685816
0.00908326
0.00210276
0.00216987
0.0202415
0.00734764
0.00444685
0.0106446
-0.000282073
0.0116516
0.00646258
0.00476502
0.00216547
0.0197438
0.00880206
0.01076
0.00834705
0.0128014
0.00421601
0.00609448
0.0103362
0.00838868
0.00664359
0.00414647
-0.000997989
0.0081067
0.00700292
0.071267
-0.0128982
-0.020259
-0.0434345
0.000382817
0.0244357
0.0476479
0.00589716
0.0106597
0.00895415
0.00656598
0.0480908
0.00903869
0.00923568
0.0133259
0.00636229
0.0125198
0.021765
0.0334775
0.0751152
0.0111491
0.0141423
0.0143787
0.0126603
0.0129327
0.0163576
0.000281753
0.0102285
0.0112171
-8.80002e-05
-0.00520303
0.0106561
0.0482586
-0.00686072
0.016182
0.00479259
0.0518693
0.0207431
0.00488068
0.0046707
0.00476547
0.0047773
0.00155571
-0.000576057
-0.00365572
0.0267134
0.00716791
0.0044885
0.0168754
0.0106282
0.0101181
0.0175579
-0.00267465
0.0122811
-0.00372637
0.01175
-0.00145742
0.00441079
-0.00298781
0.00200057
0.00964516
0.0078899
0.00663682
0.0083355
0.0104238
0.0058002
0.0113106
0.00474585
0.00824296
0.00960138
0.00746491
0.00499276
0.000911937
0.000654058
0.0171703
0.00970801
0.00742214
0.012399
0.01544
0.0193513
0.0174882
0.010142
0.00625177
0.00257336
0.00726523
-0.00323984
0.0104047
0.00730561
0.000408002
0.00750804
0.00618574
-0.00598623
0.00267472
0.0121755
0.00634125
0.00958183
-0.00524187
-0.000258974
-0.00104666
0.0113523
0.00541812
0.00838484
0.00217447
0.0114616
0.00307242
0.0117672
-0.00280413
0.0114713
0.0106704
0.000372716
0.013805
0.000145381
0.00644787
0.0113045
0.00807802
0.0111085
0.006623
0.00897214
0.0116786
0.00495905
0.00716548
0.0102421
0.00688099
0.00346345
0.00769322
0.0194366
0.000635893
0.00488106
0.0012287
0.0105163
0.00239779
0.00437519
0.00486946
0.0314589
0.0508905
0.00534401
-0.00962967
0.00162759
0.0733843
-0.00793864
0.00447097
-0.00699296
-0.00879578
-0.0792349
0.0752386
-0.19905
-0.0174722
0.0293569
-0.019385
-0.006442
0.00347308
0.00857038
0.00879538
0.00748914
0.00786464
0.00831275
-0.0355971
0.00359525
-0.00553206
-0.00653963
0.0092132
0.0534951
0.023395
-0.00648762
0.0353042
-0.0128022
0.0118055
0.0181875
0.0105881
0.0183265
0.0207388
0.0140269
0.0896996
0.0188007
0.0277518
0.0192994
0.0151524
0.014137
0.00577313
0.00973512
0.00711995
0.00313665
0.0109836
0.00626771
0.0104
0.00884686
0.0104041
0.00613366
0.00663561
0.00142951
0.00854352
5.60069e-05
-0.00111505
0.00439309
0.00438409
0.00459512
0.0142334
0.0163855
0.0112056
0.0102477
0.0120393
0.0067709
0.00518056
0.0203844
0.00779889
0.00669869
0.00715625
0.00465353
0.0175482
0.0120538
0.0306775
0.0103645
0.00141872
0.0216749
0.0012539
0.0186408
0.015125
0.0182058
0.0133276
0.00684877
0.0148472
0.0118668
0.0292085
0.0240664
0.00869487
-0.00236034
0.009114
0.00331371
0.0146547
0.0186893
0.0358374
0.0339714
0.0350188
-0.0112942
-0.0098114
-0.00381826
-0.00646724
0.0725445
0.16025
-0.157928
-0.0180327
0.0242384
-0.143432
-0.00753171
0.084777
-0.0117072
0.0477565
-0.00293639
-0.00666047
-0.0207925
-0.0023904
0.0126573
-0.0137245
-0.0160777
-0.00609272
-0.0133976
0.0145286
-0.00831786
0.00353883
0.00280087
0.00186186
0.00478949
-0.146257
0.030766
0.00569482
0.00720842
0.0110924
0.0061866
0.00226509
0.0419701
0.00849831
0.150212
0.0981585
0.100184
0.0122434
0.0083433
0.00877794
0.00759043
0.00420455
0.00511779
-0.00119953
0.00238503
0.0113449
0.0346632
0.0105513
0.00790987
0.0098884
0.00540263
0.0119475
0.0129487
0.0098906
0.00497767
0.0100507
0.0107593
0.00672158
0.0197934
0.0147472
-0.00729364
0.00471175
0.0025978
0.00169044
0.0178186
0.00113826
0.00841771
-0.00099515
0.0114665
-0.0049592
0.0104229
0.0109818
-0.00426029
0.00211149
0.00482828
0.0024553
0.0106981
0.00704639
0.0113111
0.00723406
0.0041982
0.015908
0.0170893
0.019359
0.00843023
0.000640219
0.00319598
0.0052314
-0.00118411
0.00536348
0.00985813
0.00897303
0.00791931
0.004389
0.0143253
0.0119716
0.0224616
0.00975508
0.00947684
0.00533948
0.00351054
0.00424338
0.000990137
0.0127111
0.00797829
0.00535396
0.00619735
-0.00322667
-0.0890767
0.043336
0.116761
-0.0567286
0.00319037
0.00954651
0.00397899
0.047339
-0.0477151
0.00704046
0.00679037
0.00352267
0.0050203
0.00812621
0.0608009
0.00652938
0.011879
0.00247257
0.00341519
0.000227456
0.00842276
0.00518202
-0.00842154
0.0671754
0.0206844
-0.153217
-0.0832684
0.0569762
0.0719258
0.104301
-0.0187544
0.00351393
0.00812884
-0.0041606
-0.00806275
0.00394157
0.00248237
-0.00087027
0.00247624
0.00310751
0.0666355
-0.0188522
0.0358812
0.00492542
-0.0158309
0.00475066
-0.00509632
0.00222585
0.0135478
0.00974495
0.00617854
0.01308
0.00559752
SCALARS CoVolArea double 1
LOOKUP_TABLE default
2263.7
2203.59
1441.91
1650.72
1363.3
1514.57
2086.87
1643.61
1971.38
1312.75
2008.5
1190.84
6300.89
2195.17
1598.33
1480.5
2954.99
3221.63
3542.28
2269.41
636.562
2970.64
2200.38
5859.21
2742.52
1593.07
2370.11
2751.89
1395.64
1158.52
471.298
1377.66
2469.72
2896.95
1798.7
2000.73
5157.7
684.08
386.105
1615.92
2274.98
2153.59
1938.79
1925.19
780.99
1345.6
2405.71
1779.03
1812.61
2857.89
1787.47
1662.69
1363.45
1707.62
3533.78
1227.89
1315.01
761.835
2484.13
3477.65
3363.02
2491.47
1987.87
2354.99
1931.35
1583.05
2058.6
1558.32
3271.6
595.798
1510.12
1470.72
1709.31
2208.62
769.76
4952.57
2450.15
2114.72
2315.25
2062.95
2690.42
1465.92
2014.24
1178.61
1418.31
801.697
2567.43
2743.82
3394.32
3088.66
1161.26
2038.12
2232.79
1885.41
2521.82
2007.73
1384.44
1930.32
4631.48
2724.93
430.612
2500.01
1847.02
1302.05
13191.1
3948.08
1471.47
1423.86
1112.45
1257.75
1500.02
518.103
1825.83
2363.49
2004.74
2371.54
2171.06
1864.84
2058.06
1847.52
1006.95
1257.78
1172.53
1972.49
1402.51
1219.41
1315.78
2071.7
6180.88
836.5
653.538
7056.55
3071.64
8669.03
3264.71
1346.08
1776.35
966.099
472.04
1613.93
1792.23
2395.06
1341.31
1804
1890.11
2541.99
2739.99
3180.93
2032.39
1811.45
2371.5
2041.8
2147.14
344.735
1378.46
1970.86
4994.89
1363.46
2976.86
5338.11
1069.48
1563.18
2501.89
1014.76
1154.02
3160.37
1272.72
3834.45
912.589
880.283
1599.73
1400.4
1430.33
1509.02
2104.83
1310.92
1371.8
3613.92
1701.92
3357.07
2303.87
2176.27
1426.28
1876.06
1858.63
1529.28
2243.44
2822.99
3063.68
3583.64
3650.62
3193.15
1003.21
2188.58
1487.6
713.445
1726.16
1060.86
2816.01
2200.93
2161.82
2206.1
2081.16
1500.15
2212.39
2637.61
2381.57
1084.65
1376.12
2535.2
936.607
1419.43
862.629
702.062
1187.2
3279.22
2818.68
2809.92
3115.97
3689.93
2557.38
1654.15
3763.07
3208.92
2938.24
3326.33
2737.21
3405.79
3314.37
3833.31
1427.56
2372.45
1935.79
2004.25
1871.51
2477.62
2132.36
2281.42
2381.95
2084.86
2658.16
3256.45
3012.68
2923.33
1818.52
3848.35
4019.87
1559.86
557.028
358.397
907.221
1907.01
2093.69
3585.79
2814.29
1668.48
2479.27
3684.73
1563.32
1182.91
2030.69
1432.5
933.445
492.359
1535.27
873.481
2022.61
3198.73
2625.48
1933.71
3412.71
719.412
1773.32
2768.53
5364.93
2169.59
914.485
2401.41
928.723
2287.09
174.874
385.546
2356.2
1699.15
5516.79
3640.87
3550.66
5019.03
5562.71
812.198
2799.67
2656.79
1097.54
1949.13
1604.43
872.353
5097.81
2025.65
4055.97
1494.15
2232.44
2837.41
2883.95
2495.98
1907.84
1913.55
1456.67
1197.36
1200.92
2996.63
1265.85
2671.95
1285.13
1213.98
1924.93
3047.26
3147.27
3327.28
869.828
955.509
1895.05
1078.36
816.422
744.238
1336
1770.05
1698.42
4166.97
2424.08
2968.02
1474.22
1965.15
2197.67
2205.11
1633.34
2556.12
2958.16
2789.09
1218.82
1678.74
3472.41
2839.82
4349.21
2810.73
1659.98
1779.34
2548.3
1762.82
2569.71
1958.74
2449.82
2409.74
2105.58
2934.43
2091.3
2239.34
2521.04
2637.7
1940.62
1561.56
1666.56
1941.74
1514.57
2182.1
1839
1515.1
2155.92
2405.73
2259.98
1816.82
2485.72
2602.56
3708.06
2683.12
2413.21
3141.01
2591.76
1316.57
869.865
1917.27
670.59
870.361
532.02
2064.62
3541.1
8547.37
10409.9
929.576
1627.91
329.981
4372.65
5565.04
1682.71
5524.49
3638.35
3748.05
2069.06
1830.48
3141.72
2789.98
1408.97
2996.74
3561.02
2745.5
1607.84
780.838
439.592
552.931
1550.98
2458.59
1678.75
959.302
1358.56
1833.75
942.767
1079.59
412.202
996.709
1236.19
2606.72
1747.12
2833.49
1879.49
2117.16
2175.62
2597.46
2089.07
1910.2
1300.52
1844.33
1854.62
1620.58
2318.58
1815.67
2333.16
2611.64
3113.48
2163.17
2227.44
2511.86
1683.51
1700.62
1521.81
2099.35
1915.34
2145.5
1336.96
1200.55
1552
2772.51
2302.4
2532.21
2000.88
1777.04
1204.47
1419.92
2435.88
1510.29
2832.54
1614.16
1794.61
1709.5
1876.43
2161.78
1923.76
1757.95
1457.49
1797.92
2336.78
2997.05
1576.66
2973.5
1466.86
1317.99
1234.39
1002.29
954.978
1707.07
829.774
1779.61
9864.27
1769.08
198.309
680.589
1681.32
1247.26
721.338
2131.38
1250.71
311.108
2856
10630.1
3687.9
7191.29
3726.45
2971.2
4556.61
979.047
1321.81
4676.49
3235.92
13252.8
9022.79
8952.24
1876.79
1916.39
407.982
1006.51
1675.96
1667.99
1634.89
3094.64
1114.83
877.156
339.02
338.294
504.196
149.537
2198.93
2002.3
2216.09
1866.25
1859.8
1988.39
2518.34
2054.98
1781.56
1050.36
1489.23
1791.06
1596.74
2117.81
1432.79
1384.12
1704.01
2173
1903.19
2309.36
1720.3
1589.45
1516.04
2540.82
1531.92
1943.65
2039.65
1486.21
2993.36
1852.33
2996.71
2218.95
3217.49
2086.51
1925.91
3468.88
1670.36
2491.28
2150.65
1311.56
1748.97
1143.55
1986.08
3532.09
961.477
1403.38
812.776
1346.01
2142.49
3965.25
2834.8
3256.14
2424.32
2075.75
1990.54
2284.54
2691.88
1762.33
1552.13
1377.64
2055.66
2310.81
2448.76
2639.93
2284.28
2331.48
2071.33
2612.08
2391
2812.41
1565.42
257.191
762.781
587.82
581.689
1822.28
1891.14
1932.89
1002.78
317.191
2366.77
1700.68
2221.59
2030.37
2089.54
911.66
1925.02
1409.66
2192.5
3085.29
3105.85
2407.68
2980.31
6752.1
1228.01
3638.1
803.765
1270.13
775.411
1765.91
352.231
624.525
2048.41
4775.62
4467.71
6502.6
2527.22
4352.18
4819.09
3697.67
5078.47
717.462
471.165
150.095
672.986
2020.38
2217.85
4948.86
2746.87
1346.66
746.786
3005.83
1160.01
3036.17
SCALARS SignedDistance double 1
LOOKUP_TABLE default
58.8656
70.2126
63.8733
57.5351
52.5896
65.9573
186.052
45.4045
55.8424
62.2246
54.7643
58.5542
65.9777
61.6696
68.5153
68.5938
58.5751
55.7079
53.4574
70.5834
56.6176
62.4394
61.7226
66.4245
57.31
57.4526
57.329
55.0193
84.679
81.3128
59.6811
83.3992
58.0631
59.6789
47.6683
44.6617
111.356
75.9987
74.5309
69.0978
60.906
63.2316
73.4703
69.596
53.4527
57.2885
60.5646
61.9655
60.8596
62.6292
60.2487
58.7533
57.7047
59.3679
65.6278
57.4337
58.7851
56.2974
57.7724
65.3151
70.2904
58.0116
46.4237
51.5157
46.4139
61.8986
57.6905
53.1443
57.732
60.9014
45.7855
51.633
66.9991
63.658
61.3094
70.596
62.4853
71.9326
73.8886
62.5735
63.0086
64.235
61.4393
59.6556
55.6017
57.2451
56.4306
56.4141
55.1067
54.6455
55.0641
60.2098
57.9799
53.0621
64.1188
50.5405
53.2651
55.2017
62.7302
57.062
64.2908
63.8012
73.7925
106.051
150.567
64.4645
55.3073
60.1189
60.5906
54.0981
45.1136
64.6851
54.8496
53.2399
54.5576
58.2844
58.1781
61.6504
43.3459
53.367
57.7845
66.8944
85.3434
40.3669
60.074
81.0584
69.1321
56.7208
73.5268
84.8061
87.7275
86.8381
76.2783
192.504
86.8728
57.2968
55.6765
70.9171
76.7588
54.3271
54.2616
57.0169
57.6436
70.4495
60.3465
64.376
64.9704
55.8502
57.774
59.2167
50.0263
48.4552
54.3208
84.3936
60.4278
53.2241
62.4255
115.325
60.377
80.4693
63.296
68.3321
64.559
55.9921
51.8125
70.0927
63.9849
73.1228
57.1061
58.5113
68.0258
58.9753
60.1548
59.8656
59.3068
58.7893
57.9103
63.1706
60.6436
63.9973
75.7911
74.4009
62.7203
59.2505
59.1418
58.4152
61.7586
68.8403
65.4963
65.199
66.8373
62.5477
51.3647
53.2013
60.0192
56.8316
60.4319
57.4196
58.2401
75.5718
60.7954
68.6341
60.0491
60.4171
59.9412
67.8902
56.0324
53.1472
56.6363
58.1449
57.0002
59.565
58.4678
54.9584
59.2772
62.5302
64.7374
58.845
53.3988
61.9521
62.0584
55.8386
55.3164
53.5584
51.7427
70.4635
55.9063
52.3799
55.1558
63.6028
54.1811
62.4519
44.2361
46.5267
43.8668
50.4551
48.7205
48.3349
49.2772
49.6961
50.5238
58.0511
53.1831
53.9914
82.7986
64.475
66.1632
83.6229
54.1057
60.3642
56.7913
48.8204
43.9949
63.6594
46.4478
62.244
45.9203
50.1846
52.5974
48.7548
51.9038
40.176
50.3798
64.5297
60.0984
51.5888
58.3427
70.983
59.1565
47.111
69.3172
57.544
60.7626
70.3171
71.5683
57.8291
61.2074
63.3639
60.4803
69.2786
62.9933
62.9889
62.1966
62.3857
62.4677
62.9436
64.5535
65.8187
69.1193
67.1903
68.0034
69.9245
60.7784
74.7103
69.886
61.5659
69.7278
68.7497
69.9926
63.4409
73.8084
64.789
69.4528
63.813
60.5041
61.1625
62.7717
61.808
60.833
65.5847
61.7508
66.0832
60.0165
60.4757
61.1894
64.0077
67.9121
68.1317
58.5833
59.8448
61.3067
57.2365
55.6346
55.9134
55.5765
57.56
58.0084
59.4954
56.4826
59.4521
56.6463
59.534
53.0328
53.7523
52.8585
62.5988
55.3202
62.4445
56.6269
57.8355
58.437
63.1355
64.1806
60.0667
60.0004
59.1513
61.5699
62.4879
57.4388
56.928
61.7093
52.0065
57.7959
61.3836
56.8563
61.9477
59.453
63.8981
53.007
53.6703
55.9829
54.3741
53.07
53.8851
53.7466
53.3238
55.3576
61.7477
60.0456
65.5024
56.0378
55.4793
68.596
60.4675
57.76
58.497
64.6195
61.3278
65.1534
75.6318
63.2574
65.6683
62.8867
60.2682
104.452
90.8762
174.603
86.1621
87.2658
79.4751
89.1352
124.508
120.918
84.6772
118.864
85.7496
45.8869
49.3467
60.7608
47.0517
75.119
49.7675
77.7311
68.9102
69.8644
58.7115
60.2299
56.3752
72.3666
73.0808
53.3119
51.8003
58.1875
57.4562
50.872
59.3477
64.6348
48.8707
50.1192
67.2776
43.6458
52.8736
54.5318
53.7774
57.4283
57.3574
53.1782
55.9576
55.7903
51.6969
54.0236
60.2288
60.5267
64.4387
57.0349
61.5281
62.5166
58.5823
59.3164
57.7302
48.6845
46.6098
52.9479
48.1944
43.8868
44.107
59.001
55.095
59.3856
54.9149
54.093
53.3444
71.8004
78.6005
61.6915
61.1245
78.4436
73.5008
77.8576
48.9759
39.9527
59.1799
39.0052
42.4634
40.2332
53.9435
76.517
74.3486
61.7288
83.2175
76.7627
86.0033
54.0166
66.93
66.433
68.0664
70.723
67.6954
92.0054
72.5523
89.2642
96.2133
74.2538
87.9223
73.692
77.1218
78.0726
77.0402
91.0765
75.0489
84.0192
106.157
110.126
180.921
136.97
75.4583
102.937
70.8051
73.8011
118.273
86.1007
179.011
128.683
111.541
59.2743
56.9663
74.5434
72.2784
57.0466
55.8669
53.8182
83.5441
75.5353
71.107
71.1204
73.4421
79.4426
72.1943
53.8174
55.84
56.5829
57.0701
59.3416
62.8603
59.3539
63.066
55.9448
71.3781
58.9685
55.2004
55.3145
59.6502
54.9566
54.547
56.773
62.3378
59.2046
60.6095
60.9812
67.2086
58.3783
66.1553
64.3432
64.1244
65.297
61.5821
67.5705
64.1692
66.9349
63.8811
66.6611
64.277
57.4962
58.5818
59.4503
56.458
66.4899
58.9484
60.0279
58.6621
58.1995
60.1537
58.9133
56.5304
56.8335
59.805
63.1365
65.248
63.63
64.694
52.9857
49.5938
50.8308
53.2262
54.6104
46.1908
57.1725
54.3503
42.6236
44.4181
55.685
56.48
58.1205
61.5657
55.5145
49.6784
53.3629
52.0054
84.4774
73.5266
86.17
81.0039
78.6689
66.0827
52.5817
55.791
76.2783
75.52
55.2367
58.5712
56.583
57.0901
54.7158
75.4169
54.9359
69.8776
56.337
58.5304
63.2084
56.891
75.2139
77.7986
130.852
124.085
80.1995
81.8158
65.0767
74.8582
59.9145
62.9311
75.2889
84.7205
120.958
78.171
66.6874
69.3603
67.5851
66.4863
67.2592
64.482
62.3954
63.6227
62.1663
69.333
72.7161
72.916
71.9627
63.6123
59.9082
67.9919
67.4853
70.0444
