# vtk DataFile Version 4.2
vtk output
ASCII
DATASET POLYDATA
POINTS 642 double
-285.567 426.402 94.0998
280.288 420.07 91.4667
-286.149 -491.491 104.811
280.515 -486.888 106.307
-1.35733 -346.99 594.571
-1.54496 230.202 545.464
-0.265136 -295.362 -311.453
-0.629606 270.693 -391.779
465.185 -14.5137 -190.31
435.658 -37.9599 373.431
-474.45 -13.8198 -193.951
-446.17 -38.2067 377.205
-408.088 228.198 245.514
-258.594 120.763 522.626
-163.595 395.755 350.104
159.434 393.049 348.497
-0.447789 505.088 93.0312
171.001 414.593 -186.465
-173.476 417.902 -188.371
-287.178 144.412 -355.36
-476.163 260.353 -85.2786
-527.76 -29.2668 86.5432
255.227 118.481 517.818
400.97 221.144 243.643
-269.236 -220.024 548.677
-0.769141 -36.2631 639.463
-432.174 -300.335 -65.4979
-433.776 -307.976 267.608
-1.45965 -12.6821 -449.85
-268.069 -192.998 -326.535
465.82 255.248 -82.1804
283.304 144.345 -354.348
425.213 -304.333 264.697
262.604 -219.224 543.99
171.627 -501.404 391.848
-174.088 -504.322 393.962
-1.67477 -568.925 125.537
-168.172 -454.238 -162.126
165.643 -451.844 -160.7
265.221 -192.87 -322.906
426.041 -296.768 -65.2476
520.455 -29.155 85.4222
-367.17 342.913 172.136
-303.162 335.48 309.673
-231.558 433.809 232.547
-367.061 45.8186 464.267
-353.713 178.115 402.702
-443.622 94.7998 325.935
-83.9956 324.638 457.436
-214.527 268.828 450.182
-131.104 184.822 554.798
-93.2107 478.575 232.751
-147.102 490.98 96.0201
81.2571 323.557 455.873
-0.427894 408.769 362.375
144.742 489.802 94.7734
89.8909 477.028 232.463
226.244 428.911 230.952
-89.1399 489.788 -51.0313
-245.306 432.649 -52.6995
242.61 430.896 -50.875
87.2131 487.399 -49.6781
-90.7565 362.752 -306.442
-0.950711 443.404 -204.791
88.5068 361.431 -305.311
-345.608 360.762 -147.758
-400.2 360.42 -8.65944
-145.981 217.714 -395.362
-243.174 300.349 -290.983
-506.493 125.343 -157.136
-406.253 215.873 -243.899
-403.479 72.5319 -293.172
-475.613 258.785 74.7889
-525.247 -13.3439 -61.4978
-545.372 126.248 -8.98109
-491.746 110.313 157.554
-500.757 -42.113 242.084
295.126 330.029 306.854
359.476 336.147 166.93
127.34 183.177 550.998
210.758 265.975 447.107
434.494 93.7596 322.918
348.027 175.213 398.913
360.68 44.1563 460.203
-134.954 51.6761 610.075
-1.39396 107.03 614.965
-369.832 -127.18 470.065
-278.415 -36.9431 550.75
-0.907 -202.258 628.977
-140.445 -137.505 614.935
-147.151 -289.284 593.98
-504.665 -177.184 184.137
-457.138 -176.804 330.609
-465.484 -168.301 -136.009
-506.419 -171.763 9.86135
-375.918 -416.817 189.642
-458.978 -320.049 100.429
-374.308 -409.36 17.4309
-288.365 -17.5176 -355.24
-381.466 -110.234 -272.891
-0.720388 126.945 -454.342
-142.628 72.7432 -435.835
-145.009 -256.582 -348.049
-140.65 -106.428 -403.73
0.528205 -144.287 -383.825
239.195 295.559 -287.674
143.644 216.318 -393.065
392.19 355.662 -6.30642
339.197 356.318 -144.956
397.903 69.208 -289.4
398.24 212.341 -238.784
491.918 121.159 -150.943
369.405 -411.9 188.951
314.386 -419.269 339.937
231.166 -513.044 256.643
364.34 -123.642 464.812
363.014 -270.764 420.213
447.792 -174.343 326.343
89.3488 -444.222 512.046
233.545 -373.2 494.013
145.135 -288.371 592.327
87.3442 -575.56 261.523
142.474 -547.704 114.305
-91.6544 -445.874 514.006
-0.748108 -536.28 413.13
-144.802 -550.668 114.618
-88.9544 -577.876 261.564
-235.8 -517.838 257.393
99.4793 -517.95 -28.4626
230.447 -482.311 -34.2958
-232.722 -486.096 -33.7907
-102.406 -517.944 -27.9626
100.357 -383.581 -255.604
-0.175478 -439.588 -157.331
-103.002 -383.336 -255.971
311.756 -394.254 -123.818
368.003 -404.286 16.8794
141.932 -255.848 -345.269
225.087 -338.006 -259.433
459.687 -166.762 -133.656
365.144 -255.318 -211.164
377.251 -109.889 -269.511
449.406 -315.591 100.116
514.561 -15.7326 -57.8629
500.413 -168.902 7.06551
492.36 -175.052 184.18
488.644 -42.642 238.145
137.362 -137.124 613.092
275.224 -36.9799 547.059
131.22 50.7219 605.88
-321.249 -423.209 342.724
-237.519 -375.998 497.177
-371.069 -273.524 425.165
-226.345 -339.808 -261.718
-315.257 -396.831 -125.038
-369.353 -257.02 -213.81
286.854 -16.4486 -351.745
136.666 -107.079 -400.224
139.686 73.9447 -433.446
481.15 105.887 156.308
528.593 122.235 -7.9152
463.976 254.576 74.8193
-330.599 389.106 132.664
-301.657 395.686 207.494
-259.049 436.817 166.806
-359.952 288.575 282.047
-336.653 344.518 247.705
-393.434 291.639 207.384
-199.485 420.352 293.646
-271.188 388.532 274.552
-236.683 371.566 332.896
-410.323 4.38924 423.881
-411.36 71.6494 398.49
-449.263 29.4089 353.854
-311.936 150.944 466.304
-363.869 114.144 437.238
-316.866 84.6697 496.844
-429.984 157.987 291.893
-402.584 138.773 367.4
-384.792 203.489 330.336
-42.5615 278.221 502.651
-107.18 255.574 508.719
-67.0039 210.371 555.547
-189.738 336.44 402.937
-150.853 301.334 457.264
-124.008 362.146 406.124
-194.988 154.454 542.843
-174.704 226.694 503.638
-238.192 194.167 491.222
-327.269 258.326 354.951
-286.905 226.154 429.433
-260.507 305.488 381.687
-193.793 469.441 166.924
-216.614 464.962 97.364
-131.179 444.3 293.77
-163.098 462.262 234.985
-78.3787 507.132 93.9428
-121.243 491.152 165.994
-49.5015 497.362 163.34
39.7523 277.858 501.84
-1.21754 327.165 461.05
82.9254 406.72 359.451
42.425 369.992 413.112
120.75 360.441 404.258
-44.5849 370.203 413.765
-85.8261 407.061 360.476
211.149 461.212 95.6589
189.251 465.313 165.194
253.03 431.259 165.469
47.7241 498.663 163.391
117.724 488.668 164.528
76.8107 506.041 94.0274
194.781 416.414 291.762
159.316 458.787 234
127.125 441.912 293.012
-47.5108 450.009 299.328
46.061 451.278 300.288
-0.443737 478.884 232.866
-192.792 471.739 23.5909
-268.959 431.299 18.2164
-47.378 506.45 21.2112
-118.857 495.97 22.6934
-211.443 428.963 -122.004
-162.733 469.356 -51.8438
-131.194 460.344 -121.973
264.827 427.897 16.2716
190.286 469.397 23.1324
128.771 457.357 -120.848
162.049 466.603 -49.8995
209.094 424.542 -119.341
117.674 494.537 23.952
45.7831 506.018 21.7968
-46.1627 320.791 -353.978
-0.707119 367.743 -312.242
44.5748 320.339 -353.525
-86.899 436.755 -200.658
-46.0116 408.277 -258.72
-132.776 395.609 -250.888
129.785 393.206 -249.19
44.2068 407.702 -258.407
84.5881 434.947 -199.948
-1.36295 496.372 -53.1917
43.58 471.741 -129.893
-46.025 473.14 -130.15
-334.074 405.815 -34.6379
-345.179 388.756 35.3002
-264.85 389.594 -168.366
-304.464 404.345 -103.058
-444.333 318.248 -46.4533
-380.142 369.118 -76.7656
-415.846 316.472 -118.752
-74.091 247.246 -398.899
-119.928 295.432 -358.011
-267.881 224.649 -327.871
-193.927 262.755 -350.288
-215.193 181.484 -381.479
-165.836 336.294 -305.202
-211.533 365.507 -244.279
-494.714 58.5271 -179.436
-462.882 100.18 -232.011
-444.93 31.0485 -247.28
-447.168 241.437 -168.867
-461.274 171.372 -203.851
-495.957 192.599 -122.354
-354.741 111.084 -330.514
-412.66 143.629 -276.719
-355.586 182.169 -305.867
-303.097 336.743 -225.392
-334.163 263.789 -272.15
-381.494 294.672 -200.947
-386.975 349.572 77.4739
-484.654 266.22 -4.03483
-444.22 312.587 32.5451
-423.073 298.316 118.099
-444.992 245.53 151.154
-506.468 -13.9349 -128.749
-526.58 59.2104 -108.881
-538.035 61.12 30.2423
-543.717 62.6917 -36.9559
-528.017 -16.8961 11.8148
-536.922 128.707 -81.0754
-521.799 193.128 -48.0517
-477.411 28.3663 287.814
-478.015 -39.6001 311.801
-456.428 166.595 201.538
-469.289 97.8497 252.091
-516.16 -39.9016 166.493
-497.388 31.2471 208.971
-513.982 44.4011 119.548
-517.97 194.949 33.7877
-531.487 126.85 70.465
-497.976 189.504 111.518
294.368 389.729 205.494
324.922 382.165 128.904
230.961 367.215 330.303
264.634 383.429 271.888
384.226 283.758 201.548
327.461 339.341 244.363
349.784 280.59 279.163
63.6607 209.408 553.622
104.13 254.452 506.199
234.677 192.073 486.897
171.517 225.083 499.784
191.52 152.49 537.62
147.681 299.297 454.663
185.53 333.378 400.671
439.058 29.2706 350.696
403.404 70.0919 394.653
402.195 4.25375 420.38
378.88 198.511 328.804
395.414 136.781 363.713
422.01 154.837 290.438
311.757 82.3725 492.558
357.544 111.933 432.935
306.87 148.533 461.907
255.211 300.9 379.189
282.364 222.959 426.233
321.263 252.797 353.529
-67.998 149.6 592.277
-1.5066 171.174 585.518
-197.72 88.4189 571.69
-135.147 120.13 587.889
-1.35028 38.5269 633.454
-69.5014 80.087 619.168
-69.5446 9.88275 633.043
-414.515 -79.5234 425.865
-375.35 -36.8843 471.27
-274.327 -130.784 547.516
-328.584 -82.363 514.282
-323.081 -176.364 510.718
-326.603 5.4881 511.712
-272.79 44.163 541.941
-1.00847 -276.809 620.006
-75.2586 -250.972 621.323
-73.9256 -321.753 599.35
-70.1685 -84.029 635.283
-73.6084 -169.47 627.586
-0.624622 -115.849 637.704
-213.375 -256.365 579.951
-148.146 -219.168 613.258
-206.198 -185.247 588.981
-208.124 7.21528 584.925
-209.999 -86.7421 588.911
-137.93 -36.7188 617.997
-488.059 -107.788 288.087
-456.789 -106.714 355.584
-519.31 -108.419 140.189
-510.902 -109.432 215.391
-449.271 -244.675 301.817
-485.947 -177.297 258.077
-475.866 -244.196 225.841
-470.722 -92.9437 -165.415
-500.484 -94.1945 -98.9699
-474.9 -237.893 -29.2347
-492.367 -171.102 -66.5493
-451.537 -235.218 -102.999
-519.077 -98.917 -26.6353
-525.284 -104.549 49.0359
-334.517 -458.981 147.676
-381.924 -419.081 101.83
-334.123 -454.547 60.4764
-452.809 -317.718 182.315
-423.209 -370.979 143.733
-409.345 -365.758 229.96
-407.147 -357.749 -25.121
-421.778 -368.485 58.6198
-450.612 -314.273 18.4372
-514.56 -179.729 97.4818
-489.63 -250.083 57.0518
-490.629 -251.963 141.995
-397.172 -15.0218 -286.571
-429.092 -61.8106 -236.457
-293.827 68.9876 -363.436
-352.317 30.5335 -329.272
-326.52 -154.731 -303.396
-340.091 -64.5633 -317.077
-280.95 -110.615 -346.009
-0.701612 200.374 -427.001
-73.309 173.853 -430.638
-69.3378 31.2077 -450.333
-73.2297 99.3146 -452.939
-0.855416 57.8493 -459.292
-148.269 141.696 -424.317
-215.483 110.713 -405.865
-89.9659 -276.233 -335.629
-87.0947 -208.98 -368.871
-0.057211 -223.454 -349.773
-205.706 -154.486 -369.032
-146.438 -185.558 -377.262
-204.494 -227.476 -342.145
-1.02843 -75.1219 -428.845
-77.9806 -124.546 -400.736
-67.9302 -54.7317 -432.221
-214.847 31.389 -399.058
-138.295 -14.0532 -422.418
[...]
POINT_DATA 642
SCALARS Mean_Curvature double 1
LOOKUP_TABLE default
0.00357089
0.00244584
0.00459179
0.00407147
0.00593432
0.00430976
-0.00382743
0.00489663
0.00336349
0.00432979
0.00419528
0.00457535
-0.000406341
0.0033093
0.00379498
0.00385948
0.00091827
0.0032341
0.00338593
0.00232644
0.00498294
0.00333411
0.00343153
0.000100509
0.00446967
0.00309137
0.00343247
0.00302687
0.0055898
0.00331839
0.00519717
0.00345677
0.0032449
0.00464774
0.00369773
0.00380162
0.00285151
0.00632146
0.00539978
0.00353421
0.00355901
0.00442173
0.00277591
0.00424184
0.00460583
0.00403076
0.00358615
0.00379309
0.0040346
0.00302004
0.00422219
0.0050377
0.00346439
0.0039686
0.00139188
0.00443152
0.00484785
0.0046036
0.00363015
0.000179741
0.00137448
0.00305518
0.00412266
0.00426959
0.0041708
0.00433915
0.00585124
0.00383942
0.00141974
0.00685623
0.00434418
0.00424837
0.00577879
0.00267487
0.00826601
-0.000492979
0.0029008
0.00395516
0.00206543
0.00384301
0.00308265
0.00395826
0.00370164
0.00406983
0.00473101
0.00453118
0.00176935
0.00361997
0.00195839
0.0017233
0.00406298
0.0031355
0.00307067
0.00396633
0.00216322
0.00314151
0.00443199
0.00354329
0.000667904
0.00314145
0.00615859
0.00546752
0.00695803
0.00450339
-0.00393475
0.000628964
0.0037208
0.0053273
0.00410438
0.00549219
0.00444128
0.0047417
0.00345895
0.00360538
0.00286757
0.00288296
0.00360535
0.00317876
0.00430025
0.00428012
0.00507431
0.00490467
0.00262194
0.00451267
0.0040151
0.00272319
0.00502363
0.00391173
0.0031564
0.00297831
0.00249636
0.00230721
0.00361521
-0.00662635
0.00299036
0.00415019
0.00346255
0.00598287
0.00371815
0.00401368
0.00390144
0.00354054
0.0044479
0.00191842
0.00387268
0.00327088
0.00256396
0.00228473
0.00420293
0.00441501
0.00375545
0.00414109
0.00333396
0.00330045
0.00405118
0.00386549
0.00143242
0.00382884
0.00587574
-0.000709223
0.00675269
0.00544051
0.00282698
0.00436523
0.00448198
0.00383581
0.00467772
0.00314096
0.00472811
0.00470118
0.00405279
0.00382115
0.00396059
0.00387
0.00382384
0.00405492
0.00400933
0.00298471
0.00390213
0.00241621
0.00236344
0.00242847
0.00439274
0.00316538
0.00375105
0.00332084
0.00338568
0.00207862
0.00263829
0.00141131
0.00245732
0.00275856
0.00463981
0.00355045
0.0048228
0.00472475
0.00578476
0.00463713
0.00255823
0.00247584
0.00302482
0.00335293
0.00346382
0.00322991
0.00330865
0.00314467
0.00315886
0.00439493
0.00427051
0.00391439
0.00392373
0.00555149
0.00468652
0.0047272
0.0046072
0.00317311
0.00451665
0.00196052
0.00356837
0.000293967
0.00375268
0.00382435
0.00144318
0.00292613
0.00373935
0.00024453
0.00393975
0.00357276
0.00299927
0.000238443
0.00402867
0.00393309
0.00417208
0.00414412
0.00434735
0.00355108
0.00390579
0.0041374
0.00400237
0.0041268
0.00355669
0.00357079
0.00349475
0.00366159
0.00727802
0.000937179
0.00252809
0.00557276
0.00698491
0.00616572
0.00376457
0.00405448
0.00418136
0.000670978
0.00404292
0.00313293
0.00407007
0.00250995
0.00408718
0.00668464
0.004022
0.00424879
0.00396201
0.00303071
0.00694133
0.00580403
0.00461689
0.00486193
0.00480364
0.00440214
0.00165261
0.0054078
0.00513538
0.00199415
0.00158742
0.00307729
0.00463837
0.00341382
0.00659911
-0.000532413
0.0079811
0.00621159
0.00359315
0.00366066
-0.000409521
0.00270363
0.00233646
0.0017577
-0.000660474
0.00475134
0.00714408
0.00560032
0.00424387
0.00216755
0.00391184
0.00471596
0.00148968
0.00475014
0.00224923
0.00421316
0.00238381
0.00274673
0.00210659
0.0029896
0.00373421
0.00317704
0.0039158
0.00394594
0.00419762
0.00307399
0.00404197
0.00346769
0.0039392
0.00397355
0.00376192
0.00266612
0.00269363
0.0018152
0.00479961
0.00454924
0.00363563
0.00457076
0.00469388
0.00479386
0.00465714
0.00427213
0.00391077
0.000382813
0.00353812
0.00356158
0.00407916
0.00362422
0.00491429
0.00479495
0.00448798
0.00383042
0.00174159
0.00273103
0.00717471
0.00651305
0.00297455
0.0029881
0.00265878
0.00312456
0.00432648
0.00375759
0.00217614
0.00547802
0.002935
0.00304573
0.00336074
0.00247302
0.00266349
0.00230872
0.00432467
0.00313313
0.00379041
0.00359287
0.00338389
0.00456858
0.00420596
0.00390409
0.00422089
0.00300277
0.00343271
0.0041578
0.00372346
0.00471241
0.00405822
0.00456406
0.00392335
0.00164792
0.00297594
0.00420972
0.00318156
0.00194962
0.00347056
0.00386679
0.00307418
0.00426694
0.00657681
0.0056391
0.00447449
0.00649718
0.00264379
0.00310551
-0.00204778
0.00308983
0.00515226
0.00323184
0.00512634
0.00101729
0.00453806
0.00165645
0.00168267
0.00232809
0.00407893
0.0041633
0.00202878
0.00408196
0.00259185
0.00383277
0.00228582
0.00278428
0.00705336
0.00369672
0.0061878
0.00686305
0.00492695
0.00476332
0.00476988
0.00564919
0.00554448
0.00445046
0.00486925
0.00538748
0.00348051
0.00433471
0.00419979
0.00457588
0.00441305
0.00472727
0.00317819
0.00334163
0.00345577
0.00323415
0.00308937
0.00351918
0.00545419
0.00414839
0.00450941
0.0037068
0.00257967
0.00384728
0.00378777
0.00362635
0.00120233
0.00296484
0.00349763
0.00349025
0.00471282
0.00370739
0.00348326
0.00410249
0.00402528
0.00399113
0.00627933
0.00428919
0.0048685
0.00334356
0.00397121
0.00423604
0.00211046
0.00290912
0.0033861
0.00647333
0.00416034
0.00347349
0.00388238
0.00461905
0.00461553
0.0040777
0.00470313
0.00419584
0.00491069
0.0039863
0.00249836
0.0024922
0.00214909
0.00399537
0.00382611
0.00455755
0.00480713
0.00587698
0.00341792
0.00598608
0.00613819
0.00695484
0.00273471
0.00343021
0.000983872
0.00514196
0.00322008
0.00436232
0.00630725
0.00371104
0.00359577
0.00574203
0.00563987
0.00338298
0.00434008
0.000923785
0.00578788
-0.00652495
0.00559628
0.00407829
0.0059587
0.00690858
0.00641619
0.00578512
0.0034575
-0.00432056
0.00390734
0.00402462
0.00330739
0.00388364
0.00377162
0.00397132
0.00346873
0.00385318
0.00407358
0.00354315
0.0061121
0.00410985
0.00380648
0.00338849
0.00586193
0.00337051
0.00303113
0.00392282
0.00175392
0.00376781
0.00336058
0.0033059
0.00294956
0.00322007
0.00394455
0.00402133
0.0040856
0.00405073
0.00418662
0.00326943
0.00419186
0.00401431
0.00372482
0.00227044
0.00325179
0.00447922
0.00415775
0.000344032
0.00434245
0.00256709
0.00479013
0.00282871
0.00338242
0.00355763
0.00222296
0.00494738
0.00158868
0.00378657
0.00202096
0.00475282
0.00552753
0.00207863
0.00655174
0.00132162
0.0048971
0.00424339
0.00391155
0.00430002
0.00379738
0.00131709
0.00483084
0.00457645
0.00486048
0.00438848
0.00308482
0.00274701
0.0030564
0.00212178
0.0032672
0.00432598
0.00398485
0.00334571
0.00341243
0.00397775
0.00442816
0.00397933
0.00408507
0.00406061
0.00211373
0.00353297
0.00382843
0.00473916
0.00349794
0.00414184
0.00411764
0.00362924
0.00581341
0.00373685
0.00682878
0.00479041
0.00371125
0.00320904
0.00391133
0.003577
0.00364324
0.00346097
0.00372172
0.00381806
0.00333603
0.00338035
0.0037219
0.00386718
0.00401341
0.00401505
0.00348975
0.00308432
0.0020011
0.0044802
0.00397007
0.00401731
0.00359483
0.00306581
0.00452116
0.0029725
0.00299628
0.0065112
0.00475761
0.00663143
0.00445463
0.00214322
0.000932486
0.000425893
0.0033736
0.00149752
0.00110995
0.00286378
-0.000430335
0.00561924
0.00675763
0.00684455
0.00687252
0.00295122
0.00340838
0.00206521
0.00340314
0.00470872
0.00527389
0.0055551
0.0050697
0.0053328
SCALARS CoVolArea double 1
LOOKUP_TABLE default
5037.86
5043.95
4674.49
4596.5
4874.19
4281.08
5318.62
4899.11
4702.42
4189.8
4863.32
4266.52
6825.48
5654.09
5478.39
5399.83
6096
6517.25
6547.87
6457.49
6346.96
6603.54
5576.35
6692.24
5877.65
5870.25
5921.9
6124.12
5287.2
5811.34
6053.83
6249.88
5912.03
5870.03
6456.94
6529.49
5946.97
5043.96
5041.38
5709.95
5779.58
6082.98
5908.84
5735.7
5136.12
5165.46
5968.83
5252.57
5368.23
6145.57
5220.55
5866.21
5480.53
5338.74
6179.13
5337.19
5799.75
5045.2
6356.55
6453.16
6158.53
6443.01
5959.75
6484.89
5903.85
6520.29
5359.42
6105.87
7208.46
5734.61
6686.98
5491.46
5809.41
5949.32
5418.52
7022.31
5484.85
5692.78
5809.61
5231.5
6019.43
5030.34
5742.09
5000.59
5831.24
5045.43
5834.75
6392.64
6121.14
6689.41
5806.67
6000.92
5650.4
5711.38
6279.39
5826.32
5903.2
5479.23
7056.07
5922.8
5672.42
6074.35
4615.08
6267.75
6940.63
7112.91
6094.81
5137.6
6364.62
5373.91
6481.38
5616.58
5663.33
6340.28
5690.52
5691.78
6181.43
5415.91
6204.42
6477.16
5691.84
6118.69
5863.41
6227.22
6823.11
5872.44
6165.74
5799.18
6262.77
5492.41
5549.73
6368.17
4997.46
7169.05
5057
5725.43
5395.23
4689.16
5687.99
5504.96
5876.02
5805.82
5786.44
5823.49
5937.64
5990.7
5458.55
6610.58
6124.58
5870.33
6473.09
6643.9
6320.59
5783.36
5881.34
5981.47
6786.44
6404.56
6048.73
6871.57
5301.12
5525.18
5915.37
5485.85
5416.16
6150.59
5314.44
5822.74
4965.8
5052.65
5642.17
5099.64
5177.46
5086.33
5777.01
5128.97
5107.63
5967.93
5254.99
6317.05
5357.54
5477.93
5058.35
5829.83
5455.13
5223.91
5271.73
5575.76
6034.44
6963.13
6954.53
6820.3
5363.14
5811.58
5597.52
5146.51
5442.62
5332.28
6197.45
5351.65
5496.32
5783.26
5474.17
5164.97
5510.71
5908.05
5755.85
5312.52
5436.8
6138.22
5292.27
5348.29
4890.88
5128.93
5502.19
6737.13
6624.12
6907.82
6267.76
6322.9
6251.45
5679.06
6325.21
6286.17
6620.47
6123
6018.99
6675.28
6215.68
6262.13
5599.33
6251.78
5875.48
6012.7
5841.33
6503.53
5970.21
5969.59
5931.22
5932.94
6474.65
7149.9
7238.06
7212.97
5713.4
5925.64
6731.15
5912.03
5466.13
5516.09
6623.45
5947.02
6050.37
7204.17
6432.75
6213.2
6277.91
6928.07
5521.05
5667.49
5637.09
6852.81
6108.8
6026.49
5517.03
5762.58
6639.53
7587.4
7674.14
7468.85
5991.53
6020.96
5526.92
5805.21
6554.95
5770.87
5578.23
6060.67
5342.02
6131.18
5474.28
6137.54
5510.82
5160.07
7187.18
6260.04
6028.68
6496.22
7012.82
6265.66
6461.09
6726.56
5430.91
5813.92
5559.43
4931.16
5871.81
5361.74
6235.05
5056.02
5461.85
5923.35
5531.97
5284.52
5388.86
5748.41
4964.76
5004.66
4928.38
6082.9
5011.35
5642.21
4972.82
5006.54
5643.38
6701.06
6745.29
6798.7
5053.97
4880.31
5822.27
5114.3
5132.87
5126.33
5880.71
5420.49
5476.69
6675.99
5843.9
5713.57
5377.49
5884.97
5691.8
5851.54
5848.37
6482.52
6191.41
6091.24
5371.15
5618.1
6310.26
6958.17
7555.75
7152.45
5365.87
5347.56
6194.98
5401.62
5679.98
5580.44
6163.34
5980.85
6010.27
6267.2
5771.25
5538.31
6144.01
6516.81
5662.23
5545.44
5362.5
6081.23
5569.33
5751.71
5437.34
5443.17
6056.17
6720.8
6761.88
6630.28
5886.18
5968.87
6503.43
5885.55
5636.81
6135.25
6548.5
5936.43
6059.55
5784.85
5488.72
5098.91
5838.08
6305.08
5488.57
6071.61
7074.61
6138.3
5237.97
5141.5
5443.53
5966.81
5850.87
7483.21
7178.52
7601.85
6017.4
5908.06
6877.42
6260.28
6059.97
6351.22
6910.65
5691.12
5502.32
6427.49
5415.42
5310.86
5786.64
6594.5
5399.29
5559.94
5326.82
6475.66
5719.19
5480.83
5786.81
5947.31
6577.59
7445.05
7290.28
7470.03
5547.15
5886.06
5755.94
6285.39
5835.29
5541.86
5644.45
5741.78
6356.88
5215.95
5658.42
5181.08
6090.39
5729.31
5827.21
5483.61
5619.49
6170.45
6060.77
6248.6
5866.6
6572.03
6189.6
6115.48
5231.21
5921.9
6054.73
7095.69
7026.69
7159.27
5972.62
5789.76
6506.89
5617.1
5484.86
5698.58
5947.61
6034.22
6259.99
6843.85
6291.92
6154.75
6265.34
6817.08
5905.52
6040
5936.22
5901.81
5679.09
5434.13
5788.29
5724.1
6588.46
7291.83
7308.16
6782.77
5715.23
5466.57
6949.25
5476.79
5114.25
5237.67
5219.5
5485.86
5709.31
5262.95
5208.01
5164.81
5500.27
6994.57
5562.45
6458.12
5630.15
5543.98
5842.71
4444.93
4462.59
5914.67
5635.04
8606.88
7634.81
7540.03
5503.72
5358.29
5682.67
5351.3
5309.57
5376.09
5777.26
5397.66
4589.31
5690.02
5021.09
5109.38
4745.23
5526.55
5793.17
5747.66
5800.87
5857.37
5475.77
5374.68
5571.17
5563.22
5815.56
6433.05
6427.24
6462.88
5462.37
5942.11
5354.98
5408.83
5856.37
5636.3
5820.25
6158.7
5745.68
5748.53
5443.05
6035.92
5158.34
5110.65
5921.16
5315.87
5732.27
5291.82
6119.69
6662.25
6784.83
6567.48
5813.85
6234.31
5544.25
6128.04
6382.26
5237.09
5722.63
5132.37
5667.15
6549.6
5029.09
5849.94
5100.3
5124.52
5822.21
7397.7
6902.23
7141.52
6000.97
6526.77
5875.42
5959.41
6423.68
6279.06
6253.5
6073.32
6259.43
6684.95
5867.9
6313.06
5768.52
5763.31
6140.66
7329.89
7247
7224.28
4569.16
5549.11
4700.68
5011.79
5855.35
5603.86
5938.32
5538.39
5530.31
5796.79
5927.06
5923.25
5674.07
5600.21
6000.3
6569.56
6593.88
6568.74
5716.97
6455.87
5954.13
5654.72
6271.04
5901.56
5878.59
5776.28
5264.49
6168.77
6026.64
6179.47
5769.88
5403.59
5782.21
7697.81
7369.8
7461.04
5462.54
6563.38
6328.35
6082.27
6979.06
5415.57
5834.78
5272.64
5192.54
5786
5632.9
6313.04
5499.15
5250.32
5770.68
6341.22
6073.76
6557.88
SCALARS SignedDistance double 1
LOOKUP_TABLE default
275.364
289.981
274.954
281.658
226.576
305.114
369.57
226.47
274.758
304.985
265.87
291.249
316.074
299.518
298.273
303.697
278.72
257.542
250.625
259.394
225.059
296.126
306.976
326.86
272.939
271.256
278.147
272.452
311.913
290.933
241.956
264.32
285.401
283.646
229.954
223.554
334.065
321.802
316.678
294.297
286.823
305.011
294.432
304.22
278.066
292.809
307.859
305.578
303.812
307.881
300.742
283.496
268.064
306.509
303.847
272.926
282.133
288.275
265.123
271.013
279.899
264.793
231.469
245.216
235.208
236.078
270.209
233.271
242.06
232.311
215.741
252.242
293.224
278.579
278.526
314.865
300.12
316.672
312.456
307.508
314.791
316.729
316.483
302.745
281.385
282.316
280.273
283.161
262.379
267.981
238.919
284.916
281.435
274.279
283.524
264.215
269.655
276.076
279.51
276.543
252.528
278.224
332.029
319.289
358.117
249.704
238.233
280.079
240.936
260.559
226.474
243.472
276.206
264.766
265.116
290.786
279.44
295.319
213.706
244.132
248.041
266.446
301.321
207.932
207.928
304.749
267.284
259.529
337.203
297.301
296.116
342.995
339.605
369.808
345.784
287.387
284.363
323.9
299.182
281.974
285.269
283.144
283.055
287.318
293.473
301.352
314.876
272.893
289.889
290.11
252.625
233.019
265.758
298.863
283.169
279.235
288.022
313.705
280.736
327.073
290.915
306.21
282.378
282.646
272.219
312.976
297.593
309.236
287.939
290.191
299.036
291.715
298.742
298.327
303.154
300.284
295.428
312.136
306.347
313.007
308.144
306.305
301.047
303.312
304.311
301.306
301.891
308.061
308.075
312.843
310.317
308.161
268.447
267.879
289.095
277.028
272.849
271.638
280.965
308.629
307.058
303.183
304.281
305.852
304.436
301.401
277.892
276.315
284.409
280.751
273.31
272.336
295.683
282.481
291.833
299.909
300.258
289.468
266.353
277.613
272.014
262.713
261.14
263.744
254.617
286.683
271.973
260.071
267.988
268.061
265.023
269.343
227.03
231.292
228.429
246.112
238.376
239.509
245.065
240.08
249.642
270.757
255.142
254.266
277.328
291.053
261.373
259.991
248.659
248.108
222.4
228.439
228.398
245.141
234.823
243.397
233.997
244.333
249.316
240.014
256.75
210.371
213.803
215.416
256.267
230.226
233.072
243.254
230.996
219.351
297.92
260.652
278.101
308.006
317.253
269.38
257.502
299.024
280.793
285.957
248.289
245.746
302.987
295.612
314.552
310.326
301.828
308.065
309.172
278.408
306.598
310.233
296.871
299.936
308.346
302.174
325.259
312.587
325.632
305.057
310.549
314.598
313.87
309.027
309.957
310.257
311.185
309.392
303.018
322.255
315.902
322.762
304.204
309.686
311.543
316.883
318.012
322.021
289.369
293.51
293.08
290.16
273.729
278.524
271.621
284.869
286.269
279.07
281.179
283.116
287.464
290.887
250.819
252.544
232.484
274.414
264.007
269.983
259.843
266.053
277.228
285.708
281.167
277.946
290.963
286.477
293.132
292.475
277.759
282.103
279.126
268.411
270.525
281.143
276.483
278.764
277.248
287.585
266.636
268.777
275.526
270.201
266.302
267.193
276.569
271.822
275.328
289.197
277.616
274.241
271.606
269.706
277.143
270.517
283.431
277.472
285.731
230.821
237.158
293.769
267.497
281.499
249.044
268.221
349.7
347.601
366.102
301.656
326.331
304.586
339.525
341.297
332.109
292.428
309.888
290.862
233.282
231.107
253.064
240.881
252.349
242.855
252.756
300.204
282.078
233.662
256.471
261.52
260.563
260.965
266.918
248.212
261.573
239.142
239.153
257.907
233.551
228.899
224.642
242.919
227.645
234.866
276.66
268.597
274.74
275.971
270.027
279.305
247.008
263.26
248.392
298.026
293.878
303.5
279.191
290.263
288.772
290.689
290.229
283.671
215.041
224.644
232.491
233.912
226.394
219.716
267.953
241.6
262.192
270.785
265.656
254.519
277.942
287.184
237.087
266.694
319.016
287.779
298.77
211.183
203.377
213.832
202.89
213.286
206.344
218.184
285.441
277.245
269.651
303.43
288.681
323.754
239.775
261.929
234.223
237.732
235.878
274.416
299.925
290.779
340
323.064
303.595
316.621
330.583
286.515
302.142
334.887
322.287
305.016
327.517
346.059
353.506
369.445
363.556
340.973
355.023
331.237
335.811
362.596
346.101
366.655
363.802
356.502
288.305
283.459
295.644
291.241
285.481
285.694
284.672
341.088
333.113
295.554
307.917
303.479
319.583
305.008
276.339
281.232
276.15
285.122
284.454
286.66
289.964
285.809
288.135
291.836
289.122
285.764
279.114
287.757
282.639
278.786
283.619
278.316
279.272
295.742
286.633
293.985
284.743
292.007
307.118
311.22
292.864
295.966
315.846
309.079
309.981
294.073
304.465
290.836
255.364
283.948
272.734
265.825
277.508
295.881
298.499
296.158
289.787
285.829
294.163
277.343
283.95
298.108
300.977
285.562
292.792
286.217
263.439
238.318
252.527
260.936
264.091
219.838
249.216
232.034
218.793
224.67
280.975
270.458
276.75
278.255
267.14
241.877
252.518
257.81
340.032
307.263
325.485
313.454
293.834
283.297
278.146
279.903
288.319
294.382
274.094
283.307
279.148
277.255
277.967
289.149
280.494
285.422
278.18
291.298
284.87
276.198
280.254
340.365
332.099
337.691
319.993
301.563
239.445
275.764
253.498
269.624
294.875
292.854
307.605
293.955
317.237
318.475
322.436
323.806
326.896
270.226
264.218
262.973
292.441
309.037
309.68
328.574
320.097
290.492
275.409
317.288
294.089
322.85
