# vtk DataFile Version 4.2
vtk output
ASCII
DATASET POLYDATA
POINTS 642 double
-205.307 307.395 91.0665
196.214 296.254 81.7895
-216.38 -366.647 117.721
204.66 -360.627 121.233
-3.74768 -303.837 484.749
-4.94064 127.459 421.982
0.886781 -222.709 -167.9
-2.11359 209.112 -289.381
341.999 16.1792 -119.31
293.069 -48.2913 299.493
-357.602 17.9939 -123.007
-312.358 -50.3736 302.671
-268.177 158.021 185.54
-178.952 56.3815 402.35
-119.55 279.452 252.513
108.245 276.695 250.603
-0.287668 357.592 79.6014
127.286 298.759 -132.905
-129.424 305.08 -135.96
-225.196 115.457 -235.966
-383.597 199.618 -63.8313
-374.012 -33.7549 64.7088
173.257 52.7502 394.657
259.5 140.908 184.617
-182.161 -212.622 433.973
-2.27958 -41.3678 495.966
-312.94 -229.33 -18.4255
-310.484 -246.843 225.764
-4.91554 39.6098 -300.093
-200.126 -143.46 -201.542
363.753 192.27 -60.9814
219.672 115.508 -237.155
294.99 -242.149 220.892
169.055 -209.864 426.849
119.07 -406.77 340.255
-124.768 -410.49 344.633
-2.56476 -408.193 184.667
-155.688 -315.018 -74.9995
146.119 -315.472 -75.3368
195.226 -143.852 -193.864
301.804 -223.679 -20.7227
362.499 -30.9581 59.2468
-252.228 250.726 133.258
-203.395 247.133 223.688
-165.066 315.508 181.148
-257.323 8.95655 362.665
-244.695 96.6169 315.09
-304.276 40.2386 266.085
-62.0307 216.446 341.761
-141.043 177.57 338.547
-80.5464 98.6177 432.795
-83.0716 340.848 178.944
-106.486 355.167 91.2596
53.3395 215.477 339.446
-0.754436 278.457 267.527
98.0676 353.551 87.4426
72.7147 340.264 179.659
151.942 309.08 178.964
-66.9075 354.47 -23.5532
-196.777 301.576 -34.6039
189.63 296.162 -30.1143
61.663 353.261 -20.1987
-68.7379 273.349 -226.972
-3.04777 326.588 -149.238
61.8101 271.101 -225.371
-292.091 265.561 -98.143
-320.084 249.473 -35.6765
-108.428 167.95 -290.208
-194.215 227.361 -202.15
-399.643 116.778 -104.103
-335.299 167.334 -171.887
-319.925 85.2469 -191.821
-359.869 181.544 15.5027
-382.059 14.5099 -41.8313
-403.289 118.718 -35.9842
-340.593 77.7952 96.4976
-347.982 -61.943 202.805
185.298 239.166 221.689
237.392 242.599 116.683
71.0527 97.1617 426.307
132.974 172.863 334.289
287.931 40.9944 263.112
234.673 92.4595 309.633
245.349 5.42865 357.362
-83.6617 19.5277 475.339
-5.06874 51.2164 477.139
-261.952 -116.675 369.41
-198.54 -45.4315 424.844
-1.83754 -194.421 489.824
-96.1548 -137.511 480.697
-109.719 -257.132 481.162
-359.117 -149.951 159.179
-324.909 -149.035 268.593
-343.336 -122.142 -74.88
-362.968 -131.124 29.4835
-276.121 -321.682 172.96
-335.321 -249.971 105.285
-277.738 -306.234 51.5967
-223.987 3.69119 -225.848
-287.593 -74.1681 -167.263
-2.73775 111.583 -327.976
-95.0837 95.4836 -302.506
-149.85 -178.526 -194.848
-123.244 -54.6475 -250.371
4.94122 -49.8545 -219.9
186.226 218.681 -196.273
102.717 165.279 -287.084
302.642 244.867 -30.0744
276.966 262.014 -96.1496
308.592 78.6451 -186.969
319.87 163.873 -164.954
379.349 108.254 -98.8325
262.546 -314.255 173.025
212.845 -334.594 294.609
155.535 -395.446 250.645
250.715 -107.801 362.983
246.864 -227.843 341.383
308.977 -146.275 261.31
58.9423 -371.455 432.366
158.462 -311.057 412.796
101.117 -255.845 477.068
55.4807 -443.606 268.766
108.854 -401.286 144.583
-65.7773 -374.496 436.184
-3.13822 -443.19 360.918
-116.1 -402.233 148.213
-61.2985 -446.131 269.557
-164.613 -401.74 251.824
121 -354.014 31.2182
171.983 -349.056 9.1749
-179.1 -355.215 12.0049
-125.953 -352.196 32.1544
123.462 -260.898 -130.638
0.984395 -262.227 -73.9989
-127.324 -259.381 -130.175
228.316 -287.804 -57.311
266.141 -299.117 47.7984
133.888 -179.794 -195.926
169.443 -246.666 -150.998
333.471 -119.582 -71.8719
264.526 -190.074 -121.192
281.325 -73.6371 -161.664
318.392 -244.565 104.012
367.289 7.76106 -35.8119
353.238 -124.72 18.3526
337.294 -148.914 162.146
328.384 -62.5708 196.743
86.7082 -137.023 478.463
191.756 -46.1372 419.536
74.1376 18.0174 468.484
-226.827 -339.879 299.461
-169.363 -314.442 417.521
-262.1 -229.865 349.752
-175.409 -248.734 -154.997
-234.865 -291.39 -58.6864
-272.57 -192.014 -124.768
220.813 7.69382 -215.396
111.655 -61.2697 -249.441
87.9586 100.215 -300.149
324.295 67.3334 93.7644
379.486 109.61 -35.8268
338.29 178.374 15.1179
-232.276 281.84 111.962
-208.36 289.854 165.045
-183.639 318.457 142.259
-233.849 212.402 207.504
-226.057 255.446 186.402
-262.155 218.758 149.755
-144.143 304.471 215.479
-187.653 284.076 204.287
-163.77 268.804 239.614
-287.251 -19.9438 334.81
-285.316 25.3641 316.506
-311.327 -4.13422 286.072
-219.425 76.3455 360.133
-253.301 53.6135 342.26
-223.503 33.7074 383.606
-292.372 85.6974 237.276
-276.741 70.1912 293.565
-259.223 122.109 260.565
-31.8876 171.232 378.352
-69.1902 154.966 385.377
-43.8545 114.469 432.169
-127.18 232.86 298.814
-101.048 202.427 341.854
-89.4203 246.674 302.916
-125.867 78.5155 421.156
-113.404 134.377 381.904
-161.375 109.238 375.327
-218.023 172.598 264.454
-193.545 136.912 327.236
-171.553 213.85 281.323
-142.469 340.486 142.577
-155.976 337.799 95.9036
-105.757 318.084 214.288
-123.086 333.447 182.724
-67.772 364.772 83.3902
-97.7645 352.849 138.233
-50.0086 352.047 131.715
23.6492 171.767 377.746
-3.37173 216.209 343.07
61.7545 280.177 261.144
30.1235 248.124 309.412
79.8236 244.925 299.521
-36.6978 247.498 310.445
-70.8071 279.72 264.51
141.878 332.434 90.2681
130.285 335.363 139.744
170.313 310.529 139.738
44.719 353.738 132.303
86.5388 351.203 135.962
62.2719 363.857 83.7134
131.679 299.622 213.155
111.587 329.215 181.766
93.3485 315.993 213.52
-44.3653 314.33 217.238
40.5374 316.14 218.348
0.428997 336.927 178.065
-137.633 344.164 37.0762
-200.409 303.562 23.9299
-41.2022 364.933 31.3332
-87.2187 362.279 35.9198
-163.821 306.619 -83.8136
-116.146 341.375 -24.3731
-95.6197 337.493 -83.1179
194.906 296.99 18.554
130.308 341.16 34.8791
89.4554 332.581 -80.3994
112.951 338.185 -19.9874
163.347 297.699 -84.4793
82.3623 360.353 37.8445
37.051 366.519 32.22
-35.4457 244.936 -262.418
-2.36552 276.22 -231.771
30.2412 244.175 -261.867
-64.2315 320.766 -145.733
-35.4619 303.256 -190.337
-99.2705 293.908 -185.129
91.7524 290.023 -182.475
29.5693 302.318 -190
57.2729 317.993 -145.207
-3.22797 356.299 -25.0922
28.4099 344.076 -89.7827
-35.7351 345.684 -90.148
-273.011 277.911 -44.7213
-258.023 260.667 7.97361
-220.374 269.216 -108.169
-261.28 286.183 -70.1964
-353 230.323 -47.2318
-310.862 265.502 -61.2775
-342.709 241.327 -81.6738
-55.3835 191.494 -293.841
-89.4514 226.826 -264.301
-213.795 170.659 -224.944
-143.24 201.674 -256.123
-159.165 141.227 -279.011
-123.369 254.478 -224.193
-164.839 269.129 -175.471
-381.8 80.4604 -117.752
-364.154 102.979 -154.364
-345.282 55.3467 -160.795
-366.457 187.46 -117.81
-375.978 140.304 -143.812
-403.886 153.415 -85.0746
-289.461 104.653 -213.897
-334.466 124.94 -188.718
-299.518 143.842 -208.078
-256.718 246.56 -156.614
-282.111 201.89 -186.489
-316.145 224.418 -140.356
-282.972 233.555 40.1962
-374.566 194.046 -25.8366
-346.683 216.107 -8.7751
-301.529 202.336 59.8676
-311.76 168.479 76.5822
-375.48 17.0173 -81.219
-401.3 85.3461 -73.4792
-385.121 72.2134 -5.66776
-399.351 87.9073 -42.159
-379.373 -2.13237 9.3654
-413.409 120.088 -61.8984
-407.116 148.468 -47.5763
-328.602 -6.12588 240.22
-332.793 -53.9615 256.175
-314.216 104.224 141.91
-320.624 45.1618 207.414
-360.28 -55.995 138.309
-341.987 -1.74175 172.509
-359.828 24.7455 71.7441
-390.151 148.288 -6.82254
-381.571 113.06 11.8831
-362.858 139.23 36.8671
192.668 282.091 160.952
222.719 270.418 99.1724
149.783 263.011 236.824
172.444 277.917 200.408
245.881 202.734 135.536
206.707 250.574 180.975
215.017 196.874 207.51
33.2255 114.015 428.791
60.4698 155.169 381.573
154.677 106.818 368.592
106.56 133.591 375.82
119.606 76.5314 411.964
92.6621 199.57 338.103
117.08 228.519 295.8
292.511 -2.1261 283.444
270.963 23.8013 311.677
271.713 -19.2429 331.556
249.773 112.347 260.454
264.241 68.2402 288.383
278.061 81.6071 237.058
213.552 29.2695 377.755
241.902 50.6536 335.946
209.758 73.0488 353.604
160.871 205.838 279.741
184.989 131.837 323.225
206.272 161.032 267.079
-44.4491 77.1643 460.88
-5.359 89.1517 454.843
-127.534 39.4197 443.03
-83.8165 58.7882 458.484
-4.9692 10.8387 491.354
-46.1087 35.1456 481.676
-45.8123 -6.05278 492.285
-294.125 -75.835 336.165
-265.529 -45.9873 367.856
-192.596 -126.237 424.497
-233.978 -78.908 399.694
-224.828 -166.147 396.74
-231.153 -17.2761 396.402
-192.323 7.80182 416.63
-2.17108 -255.691 488.653
-61.3044 -235.929 489.384
-56.2015 -283.383 485.399
-46.7372 -81.7863 490.451
-56.1998 -164.371 488.772
-0.897921 -108.488 496.257
-146.062 -239.175 463.614
-105.635 -215.347 480.301
-135.553 -189.834 459.449
-139.426 -13.4307 450.903
-141.691 -88.0868 456.054
-88.6641 -43.3703 480.846
-343.746 -101.276 234.702
-322.97 -96.8465 285.754
-365.148 -101.012 123.385
-360.463 -104.65 183.407
-318.986 -199.926 250.429
-347.168 -146.979 213.147
-340.601 -197.908 187.758
-350.918 -60.0798 -98.2207
-368.205 -64.5439 -54.6313
-341.414 -181.038 6.11786
-359.727 -125.447 -30.1235
-327.939 -174.048 -50.2338
-376.007 -74.3005 -7.53703
-375.77 -86.8651 49.3702
-249.235 -347.65 145.511
-283.587 -317.975 110.105
-250.595 -339.238 85.1704
-329.357 -251.305 157.459
-311.397 -286.538 134.812
-296.51 -287.259 199.555
-298.492 -269.727 15.7614
-310.61 -281.126 79.5251
-327.735 -243.65 49.536
-364.691 -151.173 95.5273
-353.662 -199.502 75.4874
-355.511 -204.888 128.514
-306.028 15.2987 -180.475
-323.578 -28.155 -147.436
-231.102 78.3223 -233.477
-279.91 51.3998 -209.708
-243.756 -112.966 -185.898
-261.137 -34.9281 -196.985
-210.598 -77.9999 -217.437
-2.37955 154.052 -316.089
-54.0011 136.805 -318.788
-42.3969 67.1012 -307.024
-48.1757 101.434 -318.919
-3.53135 84.0384 -317.009
-108.166 120.908 -307.015
-154.094 110.64 -283.08
-113.81 -191.503 -179.831
-111.937 -134.875 -207.009
2.23447 -146.283 -178.922
-161.075 -108.997 -229.751
-142.97 -122.042 -220.687
-165.165 -166.782 -206.118
-2.65477 12.7497 -278.797
-96.6458 -41.7785 -248.582
-50.7911 7.61896 -279.107
-152.467 59.5775 -258.624
-93.0577 19.5354 -276.418
[...]
POINT_DATA 642
SCALARS Mean_Curvature double 1
LOOKUP_TABLE default
0.00687459
0.00459566
0.0070834
0.0062105
0.0117429
0.00472768
0.0295405
0.00791893
0.0023474
0.0068806
0.0042719
0.00677851
-0.00250058
0.00400859
0.0038583
0.00495848
-0.00322409
0.00396518
0.00390135
0.00179777
0.0175725
0.00711243
0.0044955
9.57127e-06
0.00314318
0.00582915
0.0050449
0.003666
0.0124791
0.00442213
0.0186515
0.00977594
0.00380356
0.00262241
0.00635677
0.00582258
-0.00263559
0.0160115
0.0223469
0.00394182
0.00556121
0.00953971
0.00730223
0.00618278
0.0094378
0.00670105
0.00522909
0.0051882
0.00750024
0.00454352
0.0062273
0.00922684
0.0036997
0.00730565
0.000344434
0.00544746
0.0109539
0.00940124
0.0040333
-0.00149675
-0.00140554
0.00391591
0.00693834
0.00684363
0.00694166
0.00951609
0.00480512
0.00510521
0.00209524
0.0142311
0.00839269
0.0052268
0.00928297
0.00269668
0.00785392
-0.00136431
0.00173987
0.00525002
0.00592198
0.0044264
0.00436188
0.00647085
0.00558721
0.00656431
0.00888465
0.00852213
0.00321997
0.00587204
0.000713356
0.00596817
0.0136281
0.00430405
0.0046379
0.00631043
0.00115603
0.00566162
0.00810866
0.0046387
0.00128489
0.00465343
0.0225709
0.00278469
-0.00131037
0.018252
-0.00745945
-0.00045056
0.00496062
0.00505993
0.00895289
0.00818628
0.00913115
0.0132087
0.00517002
0.00434484
0.00233485
0.00502278
0.00707367
0.00534879
0.00666584
0.00791956
0.0139482
0.0078415
0.0119803
0.00820644
0.00957523
0.0101506
0.00829046
0.00392465
-0.00337673
0.00887118
0.0134385
-0.00303184
-0.00273391
-0.0195091
-0.00224371
0.00655937
0.00483541
0.011551
0.0125602
0.00663931
0.00653329
0.00615077
0.0083152
0.00352862
0.00719947
0.00428572
0.00218818
0.00604165
0.00764716
0.0072558
0.00523025
0.00705929
0.00646937
0.0190061
0.00548404
0.00639565
-0.000715479
0.0271577
0.00198173
-0.00281956
0.00326106
0.00873644
0.00620357
0.00855057
0.00914784
0.00284313
0.0093629
0.00411588
0.00933496
0.00924453
0.00564947
0.00564774
0.00612327
0.00585591
0.00570151
0.00658855
0.00652366
0.00303378
0.00572082
0.00327889
0.0012773
0.00246297
0.00755681
0.00516044
0.00679391
0.00659025
0.00319743
-0.000186476
0.00240145
0.000223596
0.00160153
0.00291882
0.0100816
0.00534022
0.00887905
0.0108783
0.010671
0.0106605
0.00113879
0.00295445
0.00359419
0.00261703
0.0058302
0.00572107
0.0042426
0.00274202
0.00287058
0.00942502
0.0081928
0.00413007
0.00967049
0.0107012
0.00904735
0.0099877
0.00930652
0.00100318
0.00409824
0.00284963
0.00556843
0.00140804
0.00533622
0.00883985
0.00327876
0.00271741
0.00644669
0.0013268
0.00697591
0.0045685
0.00337541
-0.000873614
0.00846867
0.00815877
0.00712435
0.00655391
0.00783189
0.00402944
0.00541827
0.006846
0.00592766
0.00613
0.00394995
0.00130972
0.00545371
0.00568465
0.00855171
-0.00596986
-0.00811945
0.0182277
0.0145434
0.0208625
0.0141056
0.00530586
0.00718194
-0.000268888
0.00527376
0.010437
0.00627604
0.00490616
0.00474411
0.00791512
0.00701543
0.00644862
0.0153589
0.0160181
0.00821155
0.0154387
0.0114133
0.00954614
0.00797698
0.00781479
0.000200542
0.00815082
0.00730055
0.000955559
-0.00369826
0.00349025
0.0112189
0.000277043
0.00915353
0.00205798
0.0294737
0.0187662
0.00462165
0.00520349
0.00117392
0.00318574
0.0017979
0.000903405
-0.00190287
0.0136697
0.00529726
0.00692687
0.00791497
0.00639873
0.00507263
0.00927458
-0.00234123
0.00826503
-0.00115358
0.00672391
0.00213086
0.00281681
0.000264341
0.00253235
0.00625101
0.0046988
0.00551021
0.0061961
0.00706208
0.00426013
0.0067869
0.00437188
0.0060455
0.00642075
0.00555499
0.00305218
0.00233874
0.0015873
0.00969391
0.00772778
0.00492952
0.00805583
0.00944558
0.010235
0.00998203
0.00718747
0.00553348
0.00108705
0.00561244
-0.000248878
0.00683439
0.00534041
0.001912
0.00524159
0.00814174
0.00204338
0.00239949
0.00543961
0.0112317
0.00746776
-0.0019124
0.00255671
0.00177247
0.0055452
0.00553641
0.00590702
0.00170057
0.00974519
0.00307178
0.00542637
0.00275537
0.00517861
0.00553495
0.00110961
0.00822991
0.00292911
0.00650664
0.00664309
0.00582564
0.0080291
0.00611156
0.00617033
0.00757495
0.00410868
0.00484212
0.00669798
0.00525051
0.00467006
0.00686202
0.0101021
0.00316041
0.00277419
0.00314742
0.00510919
0.00301357
0.00194564
0.00374847
0.00627304
0.0119191
0.00383393
0.013384
0.00570047
0.0197934
0.0127503
0.00112764
-0.00028899
-0.00644124
0.014076
0.0020485
0.0233516
0.00134324
-0.00603341
0.0114854
-0.00538177
0.00259832
0.00775411
0.00665098
0.00554629
0.00337762
0.00580091
0.0124596
0.00532697
-0.00301459
-0.00175483
0.00919613
0.0153154
0.0189196
0.0123611
0.0115463
0.00546461
0.00622921
0.0127217
0.00673025
0.0108452
0.0115852
0.0103438
0.0177346
0.00962044
0.00688176
0.00947595
0.00738337
0.00817727
0.00453409
0.00701232
0.00435893
0.00411348
0.00558814
0.00501615
0.0123105
0.00430386
0.00860257
0.00510737
0.00417243
0.00389292
0.00576568
0.00247504
-0.00018793
0.00338561
0.00378563
0.00426326
0.00865605
0.00644771
0.00863771
0.00711445
0.00702043
0.00574803
0.00976571
0.0112057
0.00825822
0.00455935
0.00465319
0.00544187
0.00489015
0.00489719
0.0131707
0.00470804
0.00410273
0.00703301
0.00407422
0.00987045
0.00898687
0.00687156
0.00886352
0.00634454
0.00940657
0.00583238
0.00701598
0.00513526
0.0020891
0.000456781
0.00937519
0.00290571
0.0102559
0.00643178
0.0117675
0.0162089
0.0190045
0.00455698
0.0160827
0.0022257
-0.00227793
0.005551
0.020522
0.0180961
0.00354581
0.00533648
0.016963
0.000326408
0.00953004
0.0217551
-0.000483289
-0.00174999
-0.00186677
-0.0187241
-0.00041418
-0.002819
0.0194625
0.00485968
6.01944e-06
0.0191096
-0.00226884
-0.00830649
0.00672592
0.00631478
0.00375611
0.00568775
0.00905544
0.00456359
0.00483991
0.00633442
0.00711876
0.00130557
0.00477398
0.0071268
0.017733
0.0135522
0.0152249
0.0211386
0.00606984
0.00603499
0.00428424
0.00572532
0.00413981
0.00394471
0.00164792
0.00406793
0.00678742
0.00496495
0.00603704
0.0067271
0.00711937
0.00406005
0.00717577
0.00745591
0.00594619
0.00191786
0.0060986
0.00742486
0.00705671
0.0038324
0.00898222
-2.10471e-05
0.00651598
0.00261362
0.00306609
0.00821704
0.00167888
0.0069811
-1.03488e-05
0.00722656
-0.00188354
0.0093741
0.008138
-0.00237912
0.00553485
0.00273981
0.00706867
0.00730357
0.00578764
0.00741654
0.0058042
0.00273471
0.00934107
0.00978675
0.0102739
0.00662152
0.00264946
0.00288197
0.00413221
0.000230186
0.00458972
0.00756347
0.00529282
0.00523134
0.00438282
0.00632495
0.0104498
0.00940265
0.00667
0.00679197
0.00286981
0.00438811
0.00406301
0.0060486
0.00657098
0.00625848
0.00520974
0.00487885
0.0012425
0.0246533
0.00532298
0.019973
0.0114538
0.00250913
0.00663111
0.00520311
0.00425576
0.0137152
0.00555763
0.00522921
0.00421043
0.00429412
0.00574912
0.00548262
0.00633197
0.00478642
0.00284387
0.00362725
0.00246741
0.00501048
0.0047676
-0.000527877
0.0109847
-0.0083625
0.0128555
0.00879107
0.0119599
0.0108243
0.0235937
0.0139531
0.00310871
0.00439442
0.000245514
-0.00514608
0.00418186
0.0022432
-0.000181764
0.00263043
0.000873515
0.0116347
0.0160198
0.027081
0.00998153
0.000115542
0.00362382
-0.00285521
0.00214223
0.00761736
0.00751623
0.00422023
0.0106716
0.00550118
SCALARS CoVolArea double 1
LOOKUP_TABLE default
3146.48
3183.34
2535.27
2503.25
2288.17
2210.86
4297.38
2595.45
2768.09
2003.11
2899.99
1971.62
6007.71
3044.75
2592.07
2519.4
3709.62
4083.29
4238.79
3441.29
2412.08
4246.12
3002.17
5789.47
3324.95
2782.9
3292.42
3599.51
2171.75
2947.47
2058.71
2833.67
3328.14
3467.13
3226.57
3416.72
4507.76
1289.24
1248.28
3002.89
3142.32
3357.36
3249.85
2879.82
1915.27
2316.46
3340.98
2635.58
2778.23
3731.09
2601.96
2737.28
2510.23
2726.57
4003.28
2342.35
2476.55
1869.02
3487.81
4454.59
4207.95
3599.08
3096.6
3464.27
3022.05
3047.64
2563.38
3169.45
4675.57
1929.99
3110.53
2453.99
2630.07
3451.5
1440.58
5495.3
3121.3
2985.73
3280.61
2771.52
3565.92
2337.08
2979.18
2126.61
2566.01
1841.62
3430.07
3725
4090.17
4151.61
2379.6
3061.88
3156.26
2987.45
3530.71
3128.93
2585.53
2807.1
5301.04
3571.84
1857.61
3039.04
1566.81
2516.98
9783.68
4957.96
3151.93
2098.95
2709.11
2212.45
2992.29
1954.81
2930.11
3428.69
3080.13
3275.41
3245.77
2813.36
3265.79
3127.12
2214.3
2465.92
2726.02
3227.64
3140.66
2694.85
2437.98
3193.47
4778.99
2600.56
2454.66
5407.38
2827.47
7332.81
3113.67
2641.33
2704.06
1379.57
2143.03
2704.74
2848.06
3352.92
2526.6
3210.32
2997.79
3318.54
3326
4112.57
3157.67
2841.17
3494.52
3368.03
3305.96
1984.3
2888.97
2992.36
5260.03
2663.96
3170.61
5604.93
1653.34
2375.88
3566.93
2278.73
2358.93
3785.52
2273.87
3974.59
1898.19
1922.19
2664.83
2330.43
2364.11
2396.5
3028.68
2276.94
2327.32
4236.4
2599.82
4125.42
3095.68
3023.73
2361.45
2999.5
2857.65
2557.2
2918.11
3414.81
3730.4
4469.14
4478.05
4150.91
2193.62
3245.94
2441.98
1830.38
2664.49
2167.49
3668.84
3060.58
3054.93
3058.47
2990.43
2517.32
3090.33
3379.12
3334.64
2244.02
2586
3457.4
2108.31
2450.24
1852.35
1848.26
2232.73
3969.44
3609.55
3929.27
4073.11
4487.25
3439.88
2794.35
4452.9
4152.78
3989.56
4128.54
3664.6
4299.09
4156
4447.22
2614.68
3373.07
3027.89
3107.97
2968.33
3580.1
3147.57
3308.63
3350.78
3096.68
3677.59
4158.04
4145.68
4053.53
2863.34
4251.34
4451.01
2843.3
1657.57
1623.2
2760.14
3214.01
3203.91
4971.48
4094.96
3358.61
3617.36
4480.72
2660.2
2242.82
3003.31
3432.95
2560
2246.92
2402.64
2107.88
3375.19
4414.79
4319.3
3750.94
4066.17
1974.65
2625.62
3571.86
5231.73
3378.85
2253.19
3292.9
2099.99
3721.63
1265.26
1720.09
3101.52
2536.32
6068
4452.6
4151.67
5232.37
5579.69
1936.92
3294.58
3746.89
2311.97
3221.82
2619.84
1853.92
4712.15
2763.16
4413.62
2409.85
3065.68
3560.84
3428.29
3074.97
2842.82
2974.39
2316.74
2143.6
2123.86
3792.64
2217.5
3515.37
2198.13
2165.83
2860.88
3987.55
4078.24
4231.12
1901.45
1902.07
2902.41
2076.81
1938
1840.97
2562.25
2781.09
2706.25
4726.11
3367.47
3588.77
2508.7
2986.22
2979.25
3077.08
2749.4
3689.14
3922.57
3800.14
2098.18
2648.22
3995.26
3913.23
5175.61
4022.97
2591.43
2737.61
3529.02
2671.1
3349.5
2920.64
3409.39
3577.18
3334.1
3763.53
3121.59
3079.58
3595.27
3799.76
2995.15
2617.96
2669.26
3054.49
2627.55
3191.13
2793.27
2535.45
3180.92
3509.11
3444.65
3096.39
3431.88
3636.24
4014.92
3475.85
3320.49
3975.92
4004.59
2959.59
2644.26
2579.64
1719.99
1613.96
2120.06
2954.7
4331.77
6307.89
9162.24
2628.03
1960.04
1603.44
3997.87
4769.57
2555.92
5638.95
4421.22
4927.04
3182.81
3161.5
4296.3
3812.78
3027.12
4093.62
4505.86
3497.18
2615.92
2595.15
1636.76
1598.15
2753.68
3598.9
2647.82
2118.5
2390.85
3118.66
2209.87
2213.37
2076.43
2580.48
3094.41
4135.94
3576.48
4249.04
2880.39
3243.95
3337.47
3574.94
3192.92
2907.93
2464.44
2933.78
3091.78
2554.7
3197.02
2625.98
3264.11
3387.74
3823.22
3050.64
3102.86
3452.5
2992.5
3134.25
2735.55
3377.61
3197.82
3319.99
2104.59
2521.57
2662.22
3935.25
3576.48
3755.22
3434.7
3241.8
2800.3
2621.89
2943.56
2827.97
3147.97
2907.11
3106.84
3432.03
3221.89
3326.15
3224.67
3431.61
3252.27
3434.1
3660.87
3103.72
2715.94
3080.89
2707.67
2638.57
2923.54
2807.69
2779.37
2600.63
2489.16
3012.88
7352.1
2247.45
1720.11
1649.48
1828.46
2818.51
2284.99
2152.77
1727.61
1639.67
2643.04
7778.75
3787.67
6184.65
3948.16
3202.13
4365.69
1245.62
1472.93
4541.93
3515.51
10510.2
7591.68
7298.7
2966.53
2770.9
2250.35
2558.39
2648.29
2630.44
2711.67
3879.83
1530.29
2498.64
1472.35
1893.67
1162.34
1705.44
3344.32
3077.96
3368.38
2912.25
2808.8
2844.77
3228.34
2960.06
2890.38
2922.27
2988.66
3014.54
2628.73
3104.26
2483.57
2483.68
2795.49
3262.27
3102.44
3378.15
2898.47
3033.96
2564.27
3380.33
2387.9
2669.56
3054.99
2502.98
3703.28
2687.97
3738.54
3428.92
4047.9
3225.72
2883.35
4014.32
2574.13
3598.93
3388.96
2327.38
2750.93
2148.36
3009.25
4354.31
1945.47
2580.98
1874.35
2248.07
3043.94
4912.3
3908.55
4256.56
3479.96
3332.33
3064.59
3353.01
3707.25
3171.97
2811.93
2748.97
3329.13
3558.52
3385.28
3600.21
3176.85
3158.42
3138.83
3903.82
3786.33
4032.58
1788.51
1554.33
1172.19
1244.38
2476.88
3108.79
2941.7
2923.19
2743.42
2214.97
3378.86
3090.32
3089.47
2953.88
3099.1
2969.27
3226.72
3185.52
3151.07
4120.53
3775.8
3136.56
3641.71
5338.17
2560.63
3794.25
1685.51
2938.74
2576.4
2702.68
1971.84
1602.74
2770.94
5494.78
5121.03
6009.16
3212.78
4726.92
5079.44
4339.57
5672.32
2078.64
1556.27
1272.73
1972.37
2907.18
3131.93
4928.26
3282.53
2212.99
1816.34
3450.03
2032
3835.75
SCALARS SignedDistance double 1
LOOKUP_TABLE default
126.83
139.562
125.785
126.758
112.298
141
238.715
101.342
124.77
138.359
121.51
131.279
144.53
135.551
137.541
139.601
127.496
119.477
115.25
139.623
116.765
136.964
138.158
147.923
126.429
124.116
124.671
122.63
160.256
138.017
125.106
143.971
129.209
130.541
103.19
100.221
178.113
161.23
158.9
134.776
129.1
140.49
139.159
140.976
124.29
130.791
137.872
137.713
136.563
138.631
136.371
130.342
123.164
136.376
138.359
123.857
128.977
129.401
124.165
130.2
137.694
122.745
103.363
111.706
105.245
115.95
128.206
105.69
115
115.007
96.3604
115.453
141.479
132.684
137.269
146.353
136.571
147.596
153.09
140.02
141.509
142.436
141.106
135.403
127.09
128.188
125.673
127.111
119.496
121.349
118.862
130.648
126.849
122.427
131.244
117.172
120.497
123.374
132.76
124.743
134.276
136.152
162.323
163.113
199.65
121.45
107.866
133.948
114.529
120.832
100.271
118.419
123.597
119.512
119.989
130.641
127.346
134.141
96.2173
113.102
122.357
136.135
156.829
92.6729
98.2676
160.067
141.474
120.045
161.12
146.475
154.1
168.375
160.473
220.669
168.031
127.518
126.242
157.563
147.182
125.59
126.146
127.114
127.233
137.597
133.89
140.395
142.999
123.731
130.379
132.154
113.63
105.947
119.679
155.814
126.445
123.491
132.842
162.055
133.78
152.768
140.214
146.585
132.266
127.271
121.017
148.612
136.853
149.049
130.204
131.402
137.401
131.134
134.166
134.51
135.353
133.985
132.115
140.932
137.169
141.76
144.037
143.266
137.433
135.255
135.289
134.036
137.353
142.83
140.985
142.66
141.57
139.009
119.29
119.849
132.97
124.988
128.273
124.583
127.207
144.166
137.548
139.984
135.964
136.96
136.112
138.677
125.316
122.815
127.95
128.55
122.335
126.585
133.561
126.597
131.852
136.981
140.161
131.368
119.811
132.11
130.014
118.734
121.085
118.77
114.129
142.873
123.58
116.802
122.128
128.217
118.877
128.109
100.893
103.802
101.328
111.801
108.173
107.865
110.458
109.352
113.1
126.264
115.587
116.143
140.023
140.041
131.277
140.404
123.167
127.414
111.851
103.642
101.124
119.457
104.883
120.282
104.193
111.897
113.895
110.677
117.087
91.6527
103.229
109.228
121.287
113.22
114.769
125.394
112.78
98.9699
147.334
127.519
132.824
150.531
149.911
124.451
127.087
139.806
135.058
136.84
134.594
128.791
137.332
134.778
141.832
140.206
138.852
141.351
145.168
139.186
146.174
151.36
134.986
148.003
141.906
137.611
152.395
143.851
151.311
139.797
144.357
142.843
144.333
140.553
137.959
138.808
140.503
138.596
136.337
145.265
140.988
146.033
136.174
138.149
139.113
142.993
144.444
146.968
130.966
133.495
133.785
130.947
124.12
125.599
122.212
128.624
128.819
127.253
126.311
129.659
128.679
131.474
116.54
117.858
112.988
128.325
120.185
127.201
125.208
125.863
127.047
131.447
130.239
127.646
133.378
129.72
134.287
135.6
125.769
126.523
128.206
118.979
122.774
129.637
124.565
127.065
128.637
133.993
118.977
120.468
124.132
121.646
118.951
119.946
123.078
121.271
123.085
133.766
127.008
124.7
124.547
122.154
142.205
126.868
127.931
125.088
130.585
107.402
121.981
147.485
137.008
140.676
129.638
133.429
174.64
171.322
215.527
155.058
160.85
160.369
170.831
171.419
179.181
144.298
171.417
145.95
103.779
104.786
121.438
107.578
129.261
109.957
128.484
148.971
140.185
118.248
130.205
128.634
133.274
137.369
121.609
116.809
121.272
113.825
111.941
123.972
121.299
105.873
99.1705
120.483
100.248
106.576
123.686
121.219
123.97
125.315
120.58
125.879
120.828
117.766
115.754
134.539
132.644
139.309
127.389
132.563
131.488
131.021
131.738
128.805
100.115
101.323
111.999
106.492
101.832
98.4391
128.804
116.675
125.484
122.204
121.722
117.609
133.614
137.521
120.351
126.589
161.288
144.793
153.224
97.8117
90.6321
101.218
89.8941
95.3846
92.2121
102.721
143.589
138.419
123.347
157.679
150.08
166.436
115.131
128.3
120.982
131.301
134.037
143.289
152.806
133.872
169.731
159.889
157.013
160.081
162.396
136.912
157.345
164.725
162.976
160.703
161.665
178.643
179.552
218.481
196.681
161.133
176.205
159.819
162.56
187.336
167.106
218.807
195.708
184.019
129.222
127.157
140.947
131.603
127.623
126.508
125.614
162.87
160.247
137.2
154.45
150.196
157.229
156.444
122.863
125.986
124.456
127.33
127.8
130.507
132.128
129.013
127.611
132.153
128.986
126.397
124.645
129.939
125.899
124.207
127.612
128.401
126.803
134.705
132.364
137.959
128.548
137.057
141.339
141.709
134.732
133.986
146.11
141.786
144.059
137.647
141.427
135.826
122.38
129.378
129.418
121.952
131.789
132.838
134.421
132.818
130.185
129.721
133.461
125.461
128.787
135.053
137.582
130.387
134.272
132.882
119.022
109.186
113.933
117.969
119.908
100.064
122.004
108.336
97.6935
100.847
125.754
123.548
127.647
131.815
121.416
110.273
116.843
116.488
166.169
160.484
160.457
161.083
147.319
128.817
122.797
124.678
133.712
148.425
122.988
126.542
125.231
124.373
123.718
134.49
124.409
129.016
126.415
130.979
130.132
126.435
137.436
162.875
182.749
166.182
158.914
148.483
123.456
137.248
130.628
137.371
146.35
135.531
167.424
139.66
144.185
148.259
147.837
147.344
148.408
132.671
135.053
138.475
138.071
146.596
153.793
154.138
154.146
139.372
133.577
148.904
144.133
153.809
