# vtk DataFile Version 4.2
vtk output
ASCII
DATASET POLYDATA
POINTS 642 double
-206.029 368.869 42.9686
206.374 373.875 41.8343
-209.724 -317.153 50.9217
215.25 -322.781 51.3718
0.788025 -203.086 420.154
0.758316 220.682 383.968
1.0373 -165.093 -262.805
0.604207 252.474 -299.542
324.562 36.9699 -157.345
319.812 24.3154 261.58
-314.905 36.6363 -153.804
-310.301 24.8287 257.277
-292.198 217.291 150.656
-186.356 140.603 368.42
-103.833 309.424 220.716
106.234 312.643 223.708
0.814212 436.173 39.8988
129.677 377.893 -158.689
-125.929 374.32 -156.569
-199.254 156.641 -278.976
-319.224 232.71 -71.1034
-345.919 31.7516 50.1285
190.427 142.583 372.517
283.615 213.248 151.638
-201.662 -107.209 388.122
1.34033 25.1323 472.74
-303.89 -169.497 -63.2502
-307.415 -174.706 190.786
1.08399 36.6064 -358.168
-187.773 -76.9795 -265.522
322.867 236.542 -74.5049
202.672 158.303 -281.789
318.231 -179.412 192.466
206.998 -108.55 391.985
134.79 -325.351 277.631
-132.907 -323.224 275.928
0.37716 -374.752 51.0821
-124.334 -300.08 -143.663
127.681 -302.612 -145.44
191.558 -78.7076 -268.137
312.173 -176.468 -65.8853
355.481 25.5006 54.2463
-262.639 301.197 100.532
-211.457 272.547 188.691
-162.744 357.865 132.26
-259.9 84.8629 322.966
-246.168 176.202 275.695
-304.156 116.865 219.345
-56.0094 272.651 318.037
-151.182 235.193 314.116
-96.2174 187.353 389.426
-62.3771 394.476 131.317
-106.244 421.535 40.532
58.3187 273.505 318.639
1.06707 324.047 234.463
110.259 424.788 40.7597
65.1711 395.623 130.945
163.201 361.499 131.432
-68.8229 436.049 -60.4951
-173.579 390.264 -57.6725
178.817 397.515 -59.4101
70.8578 437.917 -60.9576
-65.9555 324.702 -239.973
0.730904 392.515 -168.653
67.7989 325.833 -240.983
-237.275 314.77 -120.733
-276.352 315.246 -15.6822
-105.787 210.618 -303.416
-170.242 275.133 -229.196
-330.49 144.594 -115.6
-274.271 205.613 -181.645
-270.602 96.368 -225.67
-325.193 238.008 42.9019
-334.906 46.455 -53.1085
-359.409 145.039 -15.5558
-330.035 145.079 97.6646
-333.625 24.2004 162.406
206.306 271.596 190.078
264.061 303.411 100.019
99.1236 188.445 391.829
154.678 237.431 317.047
312.136 117.471 221.877
251.192 178.056 280.016
266.132 85.7495 327.111
-99.7415 88.4951 437.068
1.15132 130.285 441.382
-269.217 -43.367 331.04
-202.642 24.7189 393.472
0.291198 -86.0402 457.885
-103.314 -40.681 446.166
-110.222 -163.735 423.615
-333.834 -74.5601 118.469
-318.301 -82.8812 231.123
-307.283 -72.1487 -110.336
-338.341 -78.359 -7.49088
-264.297 -247.56 125.683
-316.545 -179.704 49.3506
-270.283 -254.262 -10.4725
-207.661 35.5056 -291.588
-264.084 -22.3885 -219.451
0.867118 143.664 -347.012
-106.785 100.24 -340.674
-100.15 -128.615 -279.379
-104.42 -27.8504 -330.796
0.603883 -68.6031 -330.144
173.52 278.175 -232.206
107.578 211.841 -305.18
277.4 317.436 -17.7297
240.475 319.451 -122.942
277.668 96.3516 -229.489
277.101 208.112 -185.333
332.847 140.926 -118.654
272.805 -252.954 126.999
247.102 -266.81 238.921
182.587 -335.177 175.385
275.282 -44.2049 334.878
283.925 -154.04 303.22
329.946 -85.0742 234.133
72.6679 -279.099 366.628
182.891 -230.395 357.095
112.323 -165.986 425.313
70.9289 -374.021 178.923
115.512 -367.08 50.2912
-71.0553 -277.759 365.158
0.603997 -338.684 286.807
-112.338 -364.592 50.5548
-69.5833 -372.649 178.776
-177.93 -330.819 174.66
71.4826 -361.808 -52.7835
179.768 -329.665 -52.7318
-175.348 -325.177 -51.2806
-69.5815 -361.465 -52.6967
67.5595 -247.433 -214.846
0.507337 -311.896 -152.05
-65.4067 -247.07 -214.734
236.276 -253.886 -114.335
279.112 -259.891 -11.9118
102.131 -130.378 -280.769
166.254 -208.852 -209.652
314.421 -70.964 -111.039
263.247 -141.587 -167.529
270.758 -23.4251 -223.205
325.603 -185.95 49.4497
344.452 41.4308 -58.665
351.304 -80.6612 -8.32995
343.483 -76.322 120.02
346.708 24.9426 166.148
105.493 -39.7505 450.502
207.393 25.2886 398.633
102.504 88.8809 440.811
-241.495 -262.358 239.015
-179.76 -227.478 353.649
-276.579 -152.942 299.165
-162.083 -205.979 -206.595
-229.562 -249.312 -111.015
-258.153 -137.398 -164.514
211.965 35.4388 -294.962
105.841 -28.0279 -332.406
107.955 100.389 -342.881
332.347 128.679 102.119
356.135 146.313 -18.6118
326.09 240.783 42.3307
-237.947 337.266 72.8914
-215.903 333.51 118.028
-185.639 366.951 90.1773
-255.168 248.815 172.283
-239.983 294.714 143.123
-280.815 261.287 125.296
-136.02 343.231 166.733
-191.247 323.375 156.045
-158.747 291.037 203.135
-288.205 55.4066 292.376
-286.574 101.786 272.74
-310.213 72.1224 240.031
-220.014 160.029 324.596
-255.27 132.683 301.904
-225.702 113.484 348.517
-293.757 168.809 182.406
-278.094 148.42 249.115
-266.581 194.665 216.348
-28.2695 249.542 352.942
-76.6911 233.928 356.909
-47.4446 205.796 389.899
-128.72 270.897 279.643
-105.056 256.441 318.561
-81.2372 289.066 281.038
-142.817 165.492 382.186
-126.244 213.961 353.791
-170.354 191.28 344.547
-228.591 225.322 239.456
-201.858 208.392 297.925
-181.39 250.42 262.419
-135.722 392.603 88.763
-155.842 397.873 41.3337
-85.8644 360.275 169.6
-111.626 379.472 132.171
-55.9345 434.204 40.3618
-84.1036 412.533 88.4178
-33.5705 420.625 87.5982
30.0002 249.842 353.386
0.756477 276.957 322.45
55.108 321.707 232.494
29.3991 298.642 286.191
84.1868 291.282 281.418
-27.2614 297.899 286.179
-51.6301 320.313 230.987
159.229 403.945 40.9624
138.678 397.564 88.8019
186.139 371.4 89.5761
35.4914 420.969 87.5367
87.4888 414.821 88.7704
58.1585 435.393 40.375
136.122 344.672 168.098
114.187 383.068 132.084
88.4786 361.518 170.763
-30.0814 367.209 177.732
31.5036 366.653 177.764
0.542145 396.981 131.961
-141.563 413.267 -9.10435
-191.728 382.971 -7.34385
-34.8547 443.728 -9.68775
-88.9663 434.633 -9.87989
-151.563 386.681 -107.78
-122.617 419.025 -60.9928
-99.1672 410.531 -110.119
194.271 389.614 -9.14982
146.444 418.564 -9.55168
101.993 413.252 -111.316
126.781 422.852 -61.7695
156.243 391.654 -109.663
92.0125 437.304 -10.0478
36.6403 444.818 -9.84095
-32.9729 291.116 -273.464
0.591529 328.772 -244.85
34.2991 291.562 -273.999
-65.743 389.48 -166.769
-34.1083 362.745 -207.3
-97.176 353.268 -200.655
100.013 355.574 -202.175
35.5644 363.108 -207.476
67.7852 391.027 -167.521
0.823289 439.913 -61.6456
36.7147 421.641 -117.11
-35.0106 420.518 -116.633
-229.009 354.692 -36.7103
-244.161 345.362 13.2618
-183.092 347.468 -139.854
-207.407 354.971 -90.3811
-300.96 277.094 -43.8798
-259.884 317.618 -68.4811
-282.355 277.074 -97.5564
-53.5815 233.458 -304.459
-86.3556 271.058 -275.543
-185.982 217.116 -256.81
-139.142 245.184 -269.579
-154.718 184.789 -295.141
-119.616 303.306 -237.864
-149.308 327.639 -195.835
-322.343 89.8197 -135.176
-301.95 120.769 -169.756
-296.321 65.79 -191.044
-301.303 220.847 -129.376
-308.656 175.764 -150.769
-332.464 187.969 -96.8828
-238.03 127.033 -255.524
-272.159 152.396 -203.74
-236.863 181.702 -231.847
-207.201 298.955 -177.5
-225.911 242.392 -208.57
-259.653 262.88 -154.69
-273.488 312.345 43.28
-329.016 239.658 -13.0971
-305.005 278.652 13.7344
-297.039 272.672 72.5333
-312.705 230.624 97.9946
-328.396 42.6843 -108.608
-337.813 97.5518 -84.3872
-353.88 103.435 9.09445
-353.304 104.834 -32.3517
-341.728 43.5608 1.53414
-349.542 146.578 -63.3624
-349.563 187.637 -43.8643
-323.736 71.7506 194.929
-326.467 24.8642 212.418
-321.687 181.884 125.298
-315.431 128.352 157.295
-342.562 23.7049 104.696
-329.576 78.1 135.619
-338.311 90.6833 70.2683
-351.836 191.378 12.8735
-353.42 148.804 36.4456
-341.028 190.183 71.0644
216.632 336.347 117.445
239.023 340.184 72.8163
157.207 294.932 208.196
190.249 326.406 155.691
280.902 265.415 120.756
240.22 298.387 139.605
250.111 245.097 171.301
49.6116 206.114 390.834
79.407 234.877 358.375
174.318 193.626 348.096
129.6 215.776 356.511
146.217 167.196 385.667
108.151 258.138 320.303
131.268 273.568 281.542
319.181 72.128 243.121
293.819 102.964 276.393
296.024 54.9803 296.407
270.258 190.829 224.335
284.324 149.448 252.762
299.2 162.222 195.484
230.715 115.285 352.776
261.198 134.775 305.905
224.919 162.494 328.6
182.97 252.038 267.586
206.007 210.703 301.825
230.929 223.849 247.234
-48.3719 161.518 419.693
0.910179 178.221 415.442
-145.888 116.881 406.185
-99.53 139.936 416.538
1.32062 78.29 460.956
-49.5122 109.804 444.084
-49.7132 57.3809 460.112
-290.339 -10.0139 295.517
-266.979 24.015 329.54
-204.258 -40.9449 393.711
-237.401 -9.84172 363.783
-239.387 -75.8912 362.593
-234.208 56.5286 360.999
-197.563 84.8545 384.926
-0.326225 -147.353 437.991
-55.619 -128.658 441.849
-58.177 -186.506 428.602
-50.4896 -6.4978 467.521
-52.3427 -63.4288 457.29
1.29288 -27.4687 472.212
-158.717 -137.283 409.941
-108.573 -103.93 435.049
-155.557 -76.9355 420.999
-153.682 57.5047 420.431
-156.804 -8.28752 424.628
-102.501 25.7673 449.35
-328.381 -25.72 198.207
-315.772 -29.7448 244.191
-345.235 -22.1694 84.1558
-338.136 -22.7956 140.525
-315.547 -131.661 212.68
-324.741 -80.1322 180.31
-320.33 -125.68 158.588
-311.716 -11.209 -139.044
-319.684 -14.3329 -83.2365
-326.458 -125.618 -35.5725
-326.883 -80.6038 -54.7928
-309.642 -124.902 -84.8983
-338.012 -24.0577 -24.9481
-344.74 -24.9165 22.9503
-239.863 -287.24 86.9121
-272.232 -256.568 50.4087
-243.163 -288.949 19.4538
-304.322 -176.841 120.987
-294.849 -217.139 85.1457
-291.923 -215.816 162.148
-290.053 -214.143 -38.0988
-297.395 -218.671 20.2341
-314.87 -177.278 -6.82095
-340.282 -76.9401 50.2863
-333.751 -130.97 19.2841
-327.608 -128.049 82.9214
-271.979 35.7282 -226.941
-292.582 6.47755 -188.684
-207.021 96.3365 -290.335
-241.734 66.657 -262.285
-229.056 -49.0554 -245.579
-238.739 5.3064 -258.691
-201.534 -22.9557 -282.393
0.67162 198.025 -325.566
-54.1947 179.099 -330.275
-53.7066 68.6505 -355.568
-54.3181 122.189 -348.125
1.13388 89.6683 -358.859
-108.289 155.394 -326.955
-155.933 130.388 -315.114
-53.2773 -147.727 -275.292
-51.2876 -98.2064 -311.425
0.8255 -112.782 -305.512
-149.495 -55.0827 -302.147
-102.986 -77.8102 -310.304
-144.553 -104.473 -276.578
0.768464 -17.5015 -347.846
-52.9942 -49.0129 -334.601
-53.3522 3.23262 -348.85
-160.809 67.8061 -321.49
-107.414 35.4704 -342.142
-158.661 3.38633 -317.147
[...]
POINT_DATA 642
SCALARS Mean_Curvature double 1
LOOKUP_TABLE default
0.0062442
0.0054317
0.00654596
0.00662764
0.00227813
0.00743898
-0.0053318
0.00535244
0.00708895
0.00680134
0.0083547
0.00657303
0.00428027
0.00558631
-0.00157071
5.32357e-05
0.00332826
0.00643009
0.00620708
0.00572667
0.00376669
0.00430318
0.00566386
-0.000474975
0.0038967
0.00789649
0.00586312
0.00691291
0.00531147
0.00558796
0.00714473
0.00545448
0.00790698
0.00486789
0.00578463
0.00616665
0.00189157
0.00610945
0.00616937
0.0055498
0.00678477
0.00411491
0.00627187
-0.000373918
0.0063327
0.00573631
0.00494586
0.00509698
0.00548543
0.00552455
0.00549284
0.00599064
0.00666231
0.00505961
-0.000463873
0.00673558
0.00543491
0.00593622
0.0083328
0.00580824
0.0082764
0.00797513
0.0052225
0.00345464
0.00510709
0.00551062
0.00767398
0.00449707
0.00415988
0.00590193
0.0059771
0.00558642
0.00502139
-0.00146381
0.0115687
-0.0016938
0.00217817
-0.00333624
0.00697155
0.00559955
0.00579884
0.00521691
0.0056711
0.00541545
0.00520563
0.00581892
0.00583998
0.00523922
0.00416428
0.00337112
0.00708257
0.00115557
0.00637899
0.0018224
0.00508253
-0.00391302
0.00599482
0.00647275
0.00661438
0.00566193
0.00492315
0.00608991
0.0033514
0.00631529
0.00517256
0.00433015
0.00440197
0.00591565
0.00498687
0.00527153
0.00580723
0.00318364
-0.00349891
0.00494099
0.0064851
0.00300044
0.00679533
0.00643199
0.00639093
0.00613973
0.00754872
0.00928238
0.00573365
0.00626384
0.000707117
0.00562509
0.00930667
0.00676645
0.00522897
0.00629006
0.00624842
0.00651329
0.0046996
0.00210608
0.00603079
0.00590999
0.00634353
0.0031611
0.00586185
-0.000300305
0.00532933
0.00573256
0.00584235
2.1124e-05
0.00942086
-2.69232e-05
0.00568854
0.00427642
0.00555343
0.00544009
0.00711533
0.00582045
0.00771736
0.00559151
0.005944
0.00586073
0.00649761
0.00597321
0.00579182
-0.00181425
0.00814024
0.00726924
0.00609164
0.00650439
0.00545818
0.00287923
0.0064548
0.00592571
0.00391763
0.00661918
-0.00504328
0.00583283
0.00556685
0.00580081
0.00557364
0.00562823
0.00565143
-0.000564688
0.00482354
0.00311839
0.00552164
0.00548847
0.00523493
0.00453198
0.00583529
0.0051168
0.00557999
0.00570916
0.0055427
0.00359343
0.00536043
0.00462389
0.0049408
0.00428677
0.00312738
0.00519019
0.00701019
0.00692146
0.0058873
0.00534514
0.00627762
0.000321174
0.0053648
0.00514206
0.00552203
-0.000229891
0.00592283
0.00632586
0.00527708
0.00538489
0.00712968
0.00643429
0.00260231
0.00618194
0.00341876
0.00473032
0.00339208
0.0024028
0.00654899
0.00460056
0.00700245
0.00770172
0.00542613
0.00830162
0.00610027
0.00542598
0.00754993
0.00574318
0.00791896
0.00576928
0.00739596
0.00709215
0.00535234
0.00475433
0.00526306
0.00658489
0.00503378
0.00590279
0.00586622
0.00447493
0.00632864
0.00496892
0.0054487
0.00529207
0.00579749
0.00644323
0.00429653
0.00430622
0.00591544
0.00510703
0.00542846
0.00389615
0.0053013
0.00367527
0.00453134
0.0053401
0.00517037
0.00423681
0.00431978
0.00206283
0.00534588
0.00491362
0.00862043
0.00894575
0.00579669
0.00232994
0.00326399
0.00484372
0.00466496
0.00550456
0.00605897
0.00662444
0.0066232
0.00610807
0.0052557
0.00589818
0.00153795
0.00643175
0.00734844
-0.00287267
0.00752746
0.00998222
0.00586842
0.00702896
0.00968963
-0.000384435
0.00373687
-9.41145e-06
-0.00330702
0.0098844
0.00803922
0.0108493
0.00654946
0.00588296
-0.00244184
0.00611283
0.00783668
0.00707826
-0.000944724
0.00486804
0.00540845
0.00578401
0.00588227
0.00569126
0.00582563
0.00473375
0.00539506
0.00555332
0.00533808
0.00368032
0.00530687
0.0041091
0.00563552
0.00584776
0.00578581
0.00494059
0.00589991
0.00459082
0.00540488
0.00606522
0.00543437
0.00528195
0.00613774
0.00542904
0.00582575
0.00208254
0.00532839
0.00455861
0.00275442
0.00576959
0.00572016
0.0056525
0.0010498
0.00319214
0.00885799
0.00785388
0.00362054
0.00754566
0.00611262
0.0031027
0.00451293
0.0052891
0.0044569
0.00584529
0.00384971
0.00354268
0.00479853
0.00351501
0.00643281
0.000393068
0.00242788
0.00630017
-0.00437449
0.00687862
0.00378976
0.00557902
0.00363921
0.0039991
0.00393
0.00589109
0.00612364
-0.00305511
0.00615407
0.00921367
0.00593835
0.00589739
0.00560266
0.0031244
0.00778064
0.00279297
0.00651454
0.00571012
0.00642599
0.00575669
0.0059111
0.00617653
0.00625125
0.00308649
0.0049496
0.00639208
0.00517593
0.00629991
0.00586371
0.00626951
0.000858439
0.0059186
0.00456472
0.00616932
0.00569833
0.00527839
0.00462343
0.00574189
0.00503747
0.00598035
0.00599208
0.00641745
0.0051775
0.00383636
0.00505786
0.00497552
0.00504993
0.00484326
0.00413239
0.00540273
0.00519541
0.00572224
0.00623389
0.00500109
0.00500988
0.0052409
0.00737707
0.00353875
0.00658895
0.0033909
0.00312539
0.00542841
0.0066148
0.00459321
0.00665214
0.0045538
0.00552837
0.00478995
0.00393767
0.00439377
0.00144935
0.00827853
0.00812049
0.00810312
0.00664546
0.00915585
0.00506922
0.00383484
0.00617302
0.00272632
0.00647421
0.00526009
0.00636497
0.00754711
0.00698622
0.0077931
0.00700681
0.00638391
0.00932522
0.00611971
0.0062605
0.00633055
0.00560605
0.00696319
0.00603468
0.00525143
0.00560178
0.00586177
0.00061929
0.00585764
0.00624717
0.00656138
0.00443365
-0.000703399
-0.00116763
0.00742691
0.000779596
0.00550133
0.00732174
0.00606787
0.00704149
0.00550121
0.00573129
0.000624097
0.000336299
-0.00137413
0.000106605
0.00549583
0.00605661
0.0065724
0.00694595
0.00753416
0.00750485
0.00404719
0.00649842
0.00642641
0.00504355
0.00717616
0.00622082
0.00651578
0.00651467
0.00645228
0.0065323
0.00625452
0.00637105
0.00624084
0.00692512
0.00500488
0.0045614
0.00112709
0.00489795
0.00526927
0.00570566
0.00656478
0.00598963
0.00554406
0.00652835
0.00291808
0.00528443
0.00552957
0.00622307
0.00605419
0.00592044
0.00619558
0.00703099
0.0061618
0.00624936
0.00139002
0.00467119
-0.0028497
0.00476423
0.00521751
0.00568496
0.00612834
0.00640671
0.00476549
0.00575139
0.00663659
0.00203391
0.0039915
0.00582938
0.00350858
-0.0032289
0.00602359
0.00635062
0.00636755
0.0058781
0.0051201
0.00735541
0.00658743
-0.00392399
0.00938787
-0.00265879
0.00368233
0.000903008
0.00103466
0.00399488
0.00583781
0.00542281
0.00613496
0.00257424
0.00226915
0.00247754
0.000775008
0.00762654
0.00646588
0.00205338
0.00314039
2.76481e-05
0.00297451
0.00251646
0.00502244
0.00847327
0.00530266
0.00529953
0.00500563
0.00476026
0.00290243
0.00529653
0.0062194
0.0056522
0.00529784
0.00541652
0.00545332
0.00534776
0.00623185
0.00718141
0.00704481
0.00507669
0.00609968
0.00590389
0.00595537
0.00720805
0.00612341
0.00618274
0.0058975
0.00642562
0.00991961
0.00573988
0.0034071
0.00619082
0.00571856
0.00594351
0.00602513
0.00478308
0.00614462
0.00549811
0.00388887
-0.00185973
0.00622294
0.0055779
0.00629945
0.00618156
0.00594044
0.00467691
-0.00322757
0.00342225
0.00317423
0.00618736
0.00594247
0.00550947
0.00556521
0.00642407
0.00608619
0.00596742
0.00677197
0.00586517
0.00578347
0.00531383
0.00564518
0.00546635
0.00604588
0.00500026
0.00600904
0.00554399
0.0057604
0.00761946
0.00615893
0.00566161
0.00616059
0.00692246
0.0025655
0.00176671
0.00407495
-0.00298808
0.0046409
0.00606922
0.00847326
0.00499552
-0.00421551
0.00630135
0.0074341
0.00700682
0.00680482
0.00688728
0.00886596
0.00841075
0.00701714
SCALARS CoVolArea double 1
LOOKUP_TABLE default
2398.65
2432.67
2587.43
2647.87
2881.27
2182.4
3025.84
2734.6
2124.37
2326.21
2145.99
2232.81
2932.84
2871.53
3750.45
3571.92
3181.53
3432.35
3391.35
3268.84
3110.38
3339.83
2945.92
3331.6
3360.43
3068.98
2804.76
2927.99
3243.86
3282.69
3037.47
3364.26
3027.87
3480.62
3677.53
3582.69
3873.35
3075.54
3133.12
3382.86
2912.92
3299.86
2569.17
3545.66
2538.43
2676.26
2958.84
2840.83
2455.03
2789.91
2753.03
2918.93
2838.96
2509.24
3638.38
2849.72
2975.9
2552.23
3433.37
3110.58
3075.42
3498.12
3277.5
3754.43
3323.36
3478.63
2851.39
3268.51
3623.87
2751.15
3381.37
2996.61
2892.98
3454.64
2296.97
3234.21
2860.9
3879.32
2482.82
2788.27
2776.46
2602.4
2868.72
2797.71
3268.82
2905.77
2994.02
3333.92
3580.78
3679.8
3281.82
3519.6
2712.92
3154.6
2852.15
3442.66
3158.7
2811.54
3169.8
2784.28
3263.75
3392.18
3102.79
3215.32
2902.9
3663.98
3309.47
2990.07
3551.23
3023.51
3459.72
2964.54
3566.14
3580.54
3299.34
3111.48
3450.12
2774.4
3549.58
3770.53
3340.09
3677.44
3390.89
3521.57
4018.72
3326.1
3637.41
3264.55
3454.68
3060.69
2978.73
3397.22
2970.51
3481.79
2909.02
3262.21
2936.46
3125.29
3340.06
3404.47
3368.33
2873.83
3330.65
3203.78
2870.66
3673.27
2726.83
3669.73
3401.67
3295.84
3416.03
3703.02
3255.82
3300.43
3151.84
3310.38
3250.35
3271.62
3425.53
3767.02
2771.24
2729.08
2693.19
2525.4
2751.46
3187.28
2662.57
2562.2
3031.94
2874.34
3949.72
2658.74
2576.5
2418.94
2853.91
2600.69
2642.74
3065.98
2813.89
3247.31
2538.9
2650.93
2665.34
3313.47
2494.66
2843.42
2696.79
2636.18
2863.06
3605.42
3227.13
3716.8
2812.06
2920.22
3278.91
2589.06
2817.31
2713.78
3099.71
2568.11
2480.3
3598.99
2856.55
2815.75
2838.75
3622.4
2860.95
2753.17
2754.98
3131.25
2717
2874.86
3009.37
2584.75
3278.37
3735.45
3797.2
3475.32
3002.76
2986.42
3334.36
2922.41
3138.55
3046.25
3465.69
2959.71
2985.91
3544.04
3111.67
3170.37
2996.48
3365.47
3233.37
3380.3
3253.89
3576.06
3377.77
3192.9
3241.25
3407.52
3626.98
3994.08
4128.25
4098.49
3081.73
2822.06
3555.04
3227.64
2878.4
3082.98
3339.77
3281.42
3302.92
3555.45
3296.52
3133.98
3288.06
3568.59
2814.81
3070.12
2818.71
3218.06
2875.67
2650.15
2998.7
3151.84
3499.34
3971.23
3964.62
3800.92
2753.81
3011.61
2771.21
2676.52
2746.44
2896.63
2854.66
2898.74
2617.2
3245.99
2439.4
2808.91
2812.11
2514.28
2853.5
3201.7
3164.94
3522.43
3747.81
2922.19
2929.23
2873.92
2526.43
2775.31
3904.93
3005.34
2635.65
2825.68
3570.12
2700.72
2693.36
2897.57
2664.7
2739.95
2529.92
3221.41
2558.08
2691.22
2754.87
3286
2663.02
3031.14
2749.41
2675.04
2899.99
3731.45
3162.76
3733.39
2877.09
2736.59
3123.54
2894.56
2907.17
2969.94
3232.54
2882.78
2920.73
3474.5
3087.22
3058.13
2876.41
3096.7
3550.61
3529.29
3338.71
3352.09
3449.41
3089.6
3203.02
3454.23
3629.11
3686.36
3927.6
3796.93
2830.63
2753.7
3189.21
3030.31
2555.23
3006.2
3372.43
2845.08
3590.77
2709.71
3005.45
2668.43
3404.66
3197.48
3310.97
3105.57
2897.42
3524.31
3181.05
3041.54
2732.67
2807.22
2839.77
3462.26
3178.2
3800.73
2781.11
2590.02
3220.42
2878.91
2925.9
2769.04
3015.7
3331.67
3338.15
3366.16
3194.43
3059.21
3189.64
3328.97
3339.24
3021.28
3223.76
3050.38
2895.33
3008.81
3023.69
2959.95
3336.77
3689.14
3725.23
3581.41
3347.26
3302.74
3592.13
3332.81
3197.95
3336.42
3602.8
2944.68
3114.7
3346.67
3136.58
2925.07
3223.4
3577.21
2769.62
3134.54
2751.38
3560.86
3242.55
3084.09
2763.7
3094.47
3253.08
4047.03
3881.6
4019.38
3442.12
3440.66
3459.11
3233.86
3132.89
3115.74
3231.04
3149.38
3732.23
2988.25
3002.87
2878.77
3457.49
3069.04
3126.43
2640.83
2853.13
3170.07
3455.08
3399.01
3369.31
3799.56
3508.1
3453.71
3310.23
3369.47
3590.69
4041.47
4079.45
4225.07
3684.26
3275.61
3593.11
3401.02
3479.48
3735.41
4184.78
3458.76
3693.84
3829.44
3634.94
3421.69
3645.56
3861.85
3233.16
3646.81
3409.49
4155.89
3654.82
3410.5
3137.09
3330.68
3503.98
4121.65
4102.95
4194.13
3076.87
3001.53
3533
3081.72
2990.68
3067.71
3325.82
2900.53
3018.58
3263.31
3014
2923.68
3032.43
3497.42
3250.77
3125.37
3228.76
3328.02
3094
2863.02
2814.95
3061.86
3270.9
3989.45
3890.49
3931.63
3064.47
3014.6
3260.86
3053.96
2767.74
2992.04
3084.48
3329.47
3106.69
3846.22
3184.01
3079.57
2928.68
3148.1
2884.33
3080.16
2672.95
3052.43
3171.59
2942.46
3020.64
3224.42
3894.03
3536.69
3882.86
3457.08
3232.06
3001.27
2852.8
3267.18
3668.77
2724.4
3467.9
3153.97
3323.06
3385.77
3104.02
2918.33
2880.72
2600.39
3496.82
3066.2
2958.66
3162.08
3205.56
3407.15
3516.7
4038.96
3664.37
3770.95
3559.96
3480.19
3307.27
3017.69
3191.06
2969.39
3154.51
3609.26
2901.66
3231.82
2977.08
2927.43
3189.97
3989.92
3726
3776.89
3351.12
3590.58
3102.96
3086.89
3101.48
3405.75
3488.35
3337.77
3473.23
3721.09
2903.77
2957.7
2747.02
3003.7
3359.85
4056.48
3915.93
3781.14
3084.84
3091.79
2896.87
3161.74
3767.29
2945.12
3046.8
2866.77
2949.01
3171.79
2892.3
3802.85
3124.19
2930.58
2978.85
3457.15
3417.34
3832.53
2855.51
3109.79
2859.25
2956.87
3321.22
3041
3330.2
2986.99
2954.91
3134.33
3350.64
3424.92
3237.75
3183.58
3335.46
3669.81
3760.25
3771.4
2566.26
3615.14
3167.31
3180.94
3659.72
2783.34
2834.71
2659.7
2923.41
3472.34
2838.23
2952.81
2525.88
2822.93
3008.54
3387.93
2929.89
3308.09
SCALARS SignedDistance double 1
LOOKUP_TABLE default
209.586
206.646
181.225
169.505
150.787
219.524
231.281
163.201
219.087
218.203
236.095
233.232
271.353
217.149
263.737
259.294
207.151
149.559
158.609
177.899
195.786
258.881
208.739
260.261
176.771
168.862
219.084
225.639
174.672
216.731
195.82
169.491
210.136
167.113
135.886
141.661
179.777
181.761
177.841
210.524
209.12
242.343
237.001
269.048
246.12
222.833
246.347
254.433
241.8
242.158
216.481
241.658
208.521
238.608
259.308
203.35
239.647
243.579
163.698
177.344
169.552
161.473
157.2
153.789
154.513
171.59
194.641
165.616
171.177
229.881
194.757
202.418
229.385
262.743
251.988
274.103
252.476
258.386
234.17
211.877
235.321
239.931
237.031
212.288
191.817
193.412
209.068
196.164
161.189
172.307
155.917
238.622
233.916
245.646
242.181
214.021
222.89
195.591
189.783
222.414
161.912
165.909
224.402
190.279
199.861
163.611
161.958
190.358
164.734
186.541
187.954
219.97
201.176
162.969
176.524
192.949
177.962
216.775
125.571
137.813
153.923
173.594
167.167
127.489
144.138
169.55
174.051
181.96
168.651
161.736
171.028
168.279
207.111
193.324
206.848
182.575
180.626
221.974
205.264
231.148
222.166
210.9
211.792
248.553
237.265
228.692
237.63
165.021
187.621
186.179
180.954
147.484
196.973
209.879
194.144
230.682
180.957
187.252
162.034
251.18
240.138
228.07
222.461
239.959
228.155
270.883
253.287
252.557
259.644
255.376
265.086
227.701
238.275
243.341
231.357
234.159
219.253
270.708
250.243
266.418
230.999
229.721
217.775
252.575
242.09
251.678
216.31
229.415
229.546
262.713
244.068
257.217
229.997
210.619
256.421
246.87
204.757
227.071
223.539
229.65
239.645
258.724
247.849
247.189
249.134
260.793
206.251
226.12
225.912
225.115
223.853
203.773
255.826
242.838
253.443
253.346
251.499
237.325
191.986
191.928
184.351
185.892
163.711
170.052
153.632
188.18
184.582
146.4
161.351
153.107
181.247
187.057
159.088
154.692
157.835
149.953
153.377
157.548
151.894
154.083
148.297
167.734
152.896
149.511
182.519
200.317
166.29
170.981
190.979
178.143
181.089
163.984
162.651
177.259
169.351
170.06
163.877
165.652
237.537
219.995
217.729
193.044
213.369
214.761
188.804
205.11
191.345
170.025
180.153
178.537
214.773
211.311
210.76
231.856
249.787
249.456
248.652
269.945
259.394
261.192
237.845
225.171
255.02
245.426
277.308
266.658
254.247
258.546
265.817
240.231
262.492
257.688
237.096
219.656
258.947
252.302
247.414
248.367
259.636
216.018
226.143
222.076
223.491
209.326
236.847
245.896
228.92
226.966
215.203
250.18
239.097
252.003
209.852
224.608
222.655
247.661
235.909
249.742
204.923
206.312
203.902
203.51
180.864
191.754
180.007
218.539
213.755
190.946
200.32
192.584
208.97
205.956
166.01
166.82
152.951
168.08
165.516
156.094
165.74
166.955
175.326
192.803
183.2
180.535
244.537
232.115
247.851
246.209
231.136
240.74
238.262
248.482
251.548
233.395
240.774
232.497
251.909
249.664
196.038
200.899
186.523
231.39
218.16
224.709
206.716
209.089
217.781
242.395
235.379
236.931
210.919
228.115
181.269
193.703
217.912
205.359
202.671
164.474
163.113
169.697
163.178
163.549
163.25
168.074
227.705
209.597
214.407
203.094
205.584
219.83
185.571
193.794
180.38
174.133
174.795
187.465
159.172
162.793
158.422
158.062
164.12
162.651
169.162
196.47
179.655
175.61
175.824
188.798
164.323
158.221
202.421
202.285
218.361
180.868
190.877
177.099
205.854
201.642
187.435
163.024
171.125
172.61
182.825
193.246
183.355
189.624
189.066
210.722
152.915
169.622
146.001
204.313
204.868
214.241
170.63
185.512
181.897
214.42
199.45
194.461
139.533
134.082
153.694
131.006
127.352
125.786
158.852
141.853
152.39
167.432
154.644
145.849
179.064
165.508
150.823
170.829
172.975
180.716
190.328
136.048
136.081
135.621
131.694
130.141
135.358
134.634
173.137
183.399
191.574
185.471
181.335
172.592
161.014
173.401
154.19
155.869
152.078
180.723
160.004
161.73
174.46
168.34
167.538
162.086
170.655
172.987
166.355
171.708
166.236
174.293
166.503
172.131
226.14
215.937
223.404
185.537
201.982
192.262
192.477
198.347
185.143
176.417
177.247
181.926
167.532
172.224
176.869
169.95
193.914
179.141
194.034
226.838
224.501
223.079
224.471
215.672
204.06
190.315
232.172
230.641
213.794
214.221
227.803
219.272
209.209
229.44
224.692
192.552
211.334
201.828
185.898
207.02
196.609
203.715
216.927
235.391
238.949
237.093
235.759
242.313
231.308
219.484
228.319
228.483
221.721
224.993
239.933
233.522
233.349
217.632
232.5
225.953
163.621
168.805
164.276
159.817
162.888
202.172
196.747
198.945
189.096
177.683
203.164
176.338
189.324
198.334
196.546
174.6
185.125
173.416
203.025
158.753
177.697
199.767
203.613
137.372
163.772
147.509
134.035
139.356
219.855
214.248
216.857
200.195
185.067
158.544
169.04
184.254
223.306
195.357
206.356
225.845
227.584
180.908
205.889
193.149
181.21
185.503
244.326
232.032
239.822
239.202
223.602
200.78
210.558
217.025
197.552
194.996
194.848
182.082
170.848
208.399
179.152
192.423
202.55
198.253
161.87
162.562
160.354
159.832
166.85
181.85
172.184
168.377
238.974
245.458
243.425
249.499
256.238
236.307
218.13
230.887
250.247
251.816
212.104
244.825
229.649
208.393
209.452
255.576
234.386
248.476
