# vtk DataFile Version 4.2
vtk output
ASCII
DATASET POLYDATA
POINTS 642 double
-176.673 324.005 31.3259
175.876 330.901 29.2503
-180.154 -278.41 48.5088
188.818 -285.494 49.0933
1.13224 -188.906 382.784
1.45095 180.392 340.438
1.86111 -132.391 -209.101
1.14998 231.127 -260.108
271.6 43.7565 -136.07
266.022 18.1602 238.116
-256.392 43.1074 -133.137
-252.63 19.9083 233.353
-238.011 190.003 117.279
-153.426 115.027 327.465
-78.6114 252.068 183.313
82.946 255.826 187.765
1.32782 383.945 23.8339
114.841 346.546 -137.373
-108.358 341.774 -134.679
-170.694 141.906 -243.219
-276.84 210.313 -57.9865
-275.51 30.2845 48.4436
159.654 117.856 332.589
226.058 182.692 120.515
-173.092 -101.75 350.146
2.77221 18.8802 427.518
-251.75 -150.581 -44.6443
-249.948 -157.585 187.63
2.10605 42.7303 -310.858
-154.909 -49.6134 -226.593
277.785 216.37 -63.2074
176.229 144.197 -246.656
264.881 -162.275 190.204
181.846 -103.121 354.876
121.891 -294.833 262.064
-118.67 -292.279 260.374
0.559483 -325.879 48.6213
-108.601 -263.928 -114.346
114.491 -266.821 -116.508
160.885 -51.7823 -229.632
261.403 -159.244 -46.9648
288.778 19.7943 55.0225
-220.729 263.358 75.7153
-175.9 222.905 147.121
-138.367 309.191 96.5713
-213.284 68.9765 288.829
-198.841 141.422 246.234
-242.586 93.8865 200.859
-43.5357 219.141 282.139
-121.336 188.582 279.549
-78.5202 153.593 345.274
-52.4739 341.362 95.1341
-88.138 372.723 25.8813
47.9908 220.475 282.609
2.51477 263.007 197.141
95.1911 376.569 26.0473
57.7513 342.514 94.523
138.02 314.017 94.7978
-61.0756 395.494 -53.3903
-147.686 351.183 -50.304
154.836 361.266 -52.8224
64.9832 397.57 -53.841
-57.3867 296.524 -208.37
1.29239 357.541 -145.487
60.8458 297.966 -209.667
-206.988 284.397 -101.809
-238.411 281.378 -13.8026
-92.3156 191.014 -264.597
-146.737 250.233 -197.094
-274.479 145.624 -93.1929
-237.665 189.638 -151.891
-226.795 90.4245 -194.248
-274.843 212.25 30.8473
-264.415 57.9188 -42.1656
-294.005 148.717 -15.3762
-257.377 146.217 74.5111
-265.032 18.1895 153.288
166.246 224.896 152.895
222.295 266.99 73.7438
83.7921 154.864 348.222
126.685 191.258 283.333
254.861 92.9526 203.977
205.465 142.688 252.822
222.359 70.1366 293.873
-81.7579 72.9367 390.678
2.2022 107.125 394.274
-223.436 -43.9032 297.911
-169.677 19.5424 351.99
0.828036 -74.0568 415.846
-86.5452 -36.7277 402.372
-97.4698 -153.309 384.857
-269.232 -64.7828 111.041
-256.117 -78.2177 218.236
-246.047 -62.8968 -88.4462
-272.9 -73.482 1.42244
-220.05 -213.943 123.036
-260.583 -159.736 44.5701
-228.149 -223.845 -2.74907
-176.519 40.5623 -251.84
-218.768 -5.34029 -186.259
1.67538 130.638 -304.334
-93.1418 94.8394 -297.557
-85.9684 -98.5642 -232.294
-89.9613 -12.2491 -284.516
1.14744 -45.2041 -281.994
151.689 254.343 -201.041
95.4795 192.785 -266.653
239.737 284.537 -16.7441
210.99 290.811 -104.679
238.131 89.6754 -199.067
239.891 192.072 -156.517
279.15 134.653 -98.4819
233.368 -221.56 124.226
218.282 -240.821 225.673
160.769 -295.752 173.719
233.534 -44.8176 302.95
246.687 -141.492 278.772
272.797 -81.2713 220.615
68.2376 -255.696 342.131
163.276 -211.445 331.88
101.356 -156.499 386.218
65.331 -329.487 179.201
105.466 -322.428 47.6718
-65.2519 -254.057 340.194
1.00093 -304.638 269.173
-99.8178 -319.839 48.0568
-62.7583 -327.879 178.914
-153.712 -291.444 172.01
67.7796 -317.874 -39.3022
159.656 -292.564 -39.5873
-152.46 -286.963 -37.702
-64.3665 -317.689 -39.128
63.331 -215.393 -170.235
0.768729 -271.283 -120.354
-59.3167 -214.895 -170.407
205.174 -225.445 -89.5066
241.625 -230.605 -4.60635
89.5078 -100.909 -233.783
142.679 -185.467 -166.297
257.135 -59.8979 -89.013
220.425 -125.618 -129.31
228.669 -6.19796 -190.764
271.294 -166.993 44.7897
276.668 49.0914 -52.1377
287.192 -77.3345 1.42082
281.406 -67.1758 113.648
282.229 19.7478 159.276
89.9395 -34.4324 408.415
176.605 19.9725 358.342
86.385 73.1677 395.509
-206.871 -232.964 226.233
-158.383 -207.453 327.218
-234.09 -141.197 273.242
-136.074 -181.59 -162.91
-194.852 -219.932 -85.2434
-214.237 -119.525 -126.179
183.584 40.4841 -255.825
92.5358 -12.5631 -286.473
94.9816 94.9368 -300.581
269.729 113.293 83.0549
293.337 146.401 -19.2467
273.534 218.308 28.8284
-202.318 295.139 54.8474
-182.487 289.421 87.9534
-157.92 319.267 67.3937
-210.554 208.729 134.556
-201.536 255.669 105.408
-233.843 228.463 94.2675
-112.952 294.791 121.099
-162.164 279.749 112.791
-128.678 236.994 162.969
-235.563 45.0727 262.858
-232.257 81.6205 245.745
-250.133 57.4697 219.275
-179.568 129.199 289.016
-207.567 107.125 270.064
-185.732 92.51 310.523
-230.566 146.063 155.628
-223.206 119.654 224.421
-211.932 160.697 188.08
-21.5732 202.326 312.433
-61.4547 189.878 316.014
-37.4657 168.455 345.5
-101.712 215.037 250.373
-83.6871 205.798 282.941
-62.9134 230.348 251.025
-117.285 135.697 339.178
-102.469 173.622 313.618
-138.375 155.194 306.083
-184.329 181.226 209.306
-163.106 167.185 265.166
-146.73 198.361 233.048
-113.335 342.071 63.9028
-130.794 350.493 27.9677
-68.6543 308.601 126.502
-92.5149 327.796 95.1555
-48.9191 383.546 25.2358
-69.995 360.627 62.2294
-30.1873 367.261 61.2738
24.9465 202.76 312.94
1.5883 223.163 285.826
44.9062 262.048 196
24.6408 239.221 254.888
68.275 233.589 250.853
-20.2001 238.094 255.143
-38.0465 260.498 193.73
134.697 358.434 26.9538
117.136 348.603 63.1393
157.535 325.383 65.6366
33.5692 366.767 60.5882
76.502 363.24 62.3338
53.3641 384.855 24.8773
112.536 295.93 124.191
96.3856 332.645 94.5288
73.0279 309.524 128.551
-24.0105 313.149 136.424
26.9269 312.523 137.037
0.732029 342.844 96.7915
-118.325 369.052 -13.1134
-164.295 340.294 -9.73247
-31.2736 396.218 -14.0093
-75.4981 388.718 -14.2854
-129.713 351.572 -92.0783
-104.426 379.905 -54.046
-86.5355 374.468 -94.2313
165.653 349.144 -13.058
125.852 375.786 -13.8898
91.8283 377.994 -95.746
112.04 384.88 -54.7911
137.337 358.363 -94.1899
81.3301 391.958 -14.3414
34.6632 397.443 -14.2219
-28.4631 266.227 -237.92
1.10234 300.127 -213.413
30.9843 266.848 -238.632
-58.45 355.853 -144.488
-30.4342 331.009 -179.679
-84.1242 322.94 -173.21
89.3637 325.978 -175.024
33.1284 331.222 -179.698
62.3083 357.672 -145.168
1.5361 397.919 -54.127
34.6955 384.663 -100.807
-31.5371 383.311 -100.251
-198.893 317.279 -31.236
-210.416 305.407 8.057
-158.34 315.275 -118.744
-179.698 320.149 -76.3062
-260.009 249.48 -35.5583
-226.071 285.397 -56.5587
-244.825 250.274 -80.9202
-46.9531 212.888 -264.668
-74.696 247.628 -239.482
-159.303 196.662 -222.134
-119.643 222.787 -233.916
-133.814 167.006 -257.804
-102.802 276.785 -205.924
-128.078 298.278 -168.13
-262.651 90.9694 -114.29
-252.508 116.573 -141.917
-245.805 65.3709 -163.629
-261.957 201.341 -108.304
-262.342 166.678 -123.01
-283.236 176.113 -77.7519
-201.69 116.381 -221.722
-230.117 142.195 -171.676
-202.188 165.539 -198.083
-180.678 271.353 -151.081
-196.122 220.826 -177.018
-226.116 238.412 -130.268
-232.66 275.727 31.5312
-282.117 214.981 -11.6356
-259.856 248.074 8.49858
-249.731 240.564 54.4782
-260.811 205.534 73.9596
-262.843 51.6723 -98.3816
-273.594 107.385 -68.9852
-284.175 113.073 1.60931
-287.84 118.025 -24.0055
-272.985 51.4731 10.0934
-290.083 150.523 -47.2489
-296.546 175.593 -34.8029
-256.814 57.6043 183.263
-261.509 20.0422 198.869
-255.206 170.653 96.5559
-247.455 112.507 139.073
-273.737 17.7047 96.4917
-260.569 66.4702 124.691
-269.96 86.9904 54.3971
-293.815 178.282 5.51622
-286.448 152.554 18.4185
-279.354 180.422 48.8443
183.267 293.509 86.4621
203.614 298.979 54.4873
124.5 242.567 171.835
159.83 283.701 113.204
233.264 237.202 85.7004
201.166 262.468 100.084
201.346 205.413 135.209
41.5809 168.705 346.575
66.4701 190.977 317.688
144.465 158.111 310.569
108.159 175.805 316.955
122.879 137.959 343.507
89.0758 208.038 284.823
105.702 218.901 252.453
263.134 56.7247 221.882
242.428 82.5694 250.096
246.853 43.7908 267.575
218.759 152.663 202.713
231.925 119.339 229.575
240.953 130.461 178.533
193.125 95.2064 315.814
215.819 109.574 275.296
186.609 132.263 294.22
148.365 200.881 240.822
168.77 169.567 270.861
187.169 178.374 222.645
-38.4653 133.08 373.138
1.70031 146.796 369.334
-120.684 96.7389 361.519
-81.8205 115.419 370.535
2.61935 62.9772 414.292
-39.4379 90.0113 397.025
-39.0916 46.0543 413.8
-238.106 -12.6027 267.305
-220.61 18.5746 295.619
-172.587 -40.4274 352.596
-198.478 -12.4348 325.885
-202.816 -73.1291 326.608
-194.193 46.5798 322.548
-164.471 69.8065 342.88
-0.750669 -135.743 393.582
-50.0695 -119 397.616
-53.9616 -173.682 390.188
-39.558 -5.891 423.327
-43.0326 -54.8356 414.165
2.664 -22.2802 430.002
-137.965 -129.282 370.825
-94.9228 -97.143 392.019
-133.729 -72.9258 379.171
-128.083 47.3736 375.838
-132.186 -9.26437 381.084
-83.9962 20.6983 404.169
-262.26 -22.964 187.174
-256.361 -29.5211 225.038
-277.593 -19.2489 79.7793
-271.769 -20.0995 130.956
-253.478 -122.781 205.091
-259.196 -72.5058 173.097
-256.056 -112.827 154.786
-249.502 1.85223 -121.813
-253.773 -7.28 -69.144
-265.525 -114.146 -20.9122
-264.294 -76.2168 -35.8837
-252.066 -113.653 -61.3111
-270.647 -22.7408 -10.4668
-276.832 -23.1564 27.7468
-202.28 -251.944 82.0169
-228.852 -225.025 47.2626
-207.337 -253.87 21.5713
-243.219 -159.872 116.625
-243.393 -191.011 78.5262
-239.73 -189.507 161.187
-242.236 -188.569 -24.6916
-247.559 -192.051 22.4785
-260.864 -157.088 0.846354
-274.189 -69.0602 47.6212
-270.866 -118.38 20.6162
-264.415 -113.338 74.7659
-226.724 41.0049 -194.462
-240.769 17.7243 -160.955
-176.961 90.8679 -252.06
-203.856 66.1196 -226.696
-190.473 -25.3698 -209.182
-199.831 16.6058 -221.962
-169.564 -6.22392 -242.086
1.25153 179.586 -284.155
-48.0033 162.454 -289.051
-46.5276 68.63 -309.876
-47.5678 112.611 -304.791
2.25817 85.5614 -314.511
-95.1459 141.569 -286.356
-135.057 120.335 -275.554
-49.7159 -115.443 -225.999
-44.3424 -68.6532 -264.652
1.54331 -79.3904 -258.948
-125.918 -33.4688 -258.522
-87.698 -52.2029 -264.451
-119.37 -75.4856 -233.599
1.39454 -3.45017 -299.634
-46.1599 -29.545 -286.91
-46.6019 13.4559 -301.36
-138.849 67.2914 -279.585
-93.3485 40.2983 -297.087
-135.73 13.8585 -273.734
[...]
POINT_DATA 642
SCALARS Mean_Curvature double 1
LOOKUP_TABLE default
0.00836667
0.00670061
0.00781197
0.00819426
0.00217865
0.00998205
-0.0105078
0.00540111
0.0103143
0.00846208
0.0124169
0.00930882
0.00886087
0.00702265
-0.00203014
0.000481954
0.00215867
0.00868326
0.00781981
0.00720506
0.00659154
0.00613128
0.00730352
-0.00184933
0.00444293
0.0105057
0.00903798
0.00735998
0.00539534
0.00557547
0.0106388
0.00669888
0.00757143
0.006163
0.00717469
0.0090365
0.000497437
0.00815936
0.0083582
0.00572284
0.00661434
0.0029519
0.00829193
-0.00293954
0.00845669
0.00726628
0.00600431
0.00564529
0.00656456
0.00660295
0.00694438
0.00651246
0.00851654
0.00586101
-0.00112971
0.00922174
0.00526682
0.00612202
0.0137887
0.00677499
0.0122314
0.0124787
0.00627337
0.00296971
0.0061307
0.00706792
0.0112029
0.00516148
0.00419256
0.00459537
0.00905002
0.00634773
0.00802554
-0.00540981
0.0138463
-0.00983068
0.000544641
-0.0038435
0.0100193
0.00718374
0.00697338
0.00685353
0.00667721
0.00687428
0.00615212
0.0074017
0.00548056
0.00663499
0.00547639
0.00375186
0.00854575
0.00190804
0.00540141
0.00138315
0.00617423
-0.00589755
0.008114
0.00887913
0.00899234
0.00664032
0.00560665
0.00782748
0.004265
0.00831599
0.00608617
0.00461326
0.00487537
0.00859236
0.0064028
0.00697872
0.00610134
0.00181915
-0.00300177
0.00915158
0.00595215
0.00255708
0.00965762
0.0060749
0.00860361
0.0080472
0.00825864
0.00931584
0.00651222
0.00843667
-0.0018597
0.00655451
0.00917919
0.0078108
0.00630643
0.00854971
0.0084571
0.0084468
0.0044622
0.000850587
0.00674597
0.00778197
0.00907769
0.00405883
0.00672453
-0.000503702
0.00590958
0.00700916
0.00458324
-0.00474024
0.0074866
-0.000707651
0.00589771
0.00511924
0.00651941
0.00650383
0.00795927
0.00744017
0.00984085
0.00586375
0.0076137
0.00693815
0.00869572
0.00763774
0.00740915
-0.000816721
0.00949806
0.0113946
0.00816518
0.00895368
0.00757034
0.00369689
0.00742386
0.00686709
0.00144204
0.00628951
-0.00646007
0.00729756
0.00685928
0.00824373
0.00690385
0.00697432
0.00711626
-0.00298356
0.00586407
0.00475029
0.00669453
0.00683439
0.00617981
0.00400562
0.00707846
0.00540294
0.00704536
0.007244
0.00689781
0.00485096
0.00654866
0.00482202
0.00549804
0.00477438
0.00206767
0.00396182
0.0096934
0.00857325
0.00682831
0.00641992
0.00781794
0.00115062
0.00614869
0.00602227
0.00629443
0.000375721
0.00724451
0.00763515
0.00700055
0.00428445
0.00959119
0.00849351
6.02302e-05
0.00566667
0.00302859
0.00553153
0.00390028
0.00188551
0.0072726
0.00565127
0.00911713
0.0100775
0.00671843
0.0131302
0.00851008
0.00541634
0.00960972
0.0078362
0.0131537
0.00776855
0.00977958
0.00909514
0.00642112
0.00575328
0.00634324
0.0090027
0.00572979
0.00732863
0.00742315
0.0043512
0.00809603
0.00717626
0.00695254
0.00677588
0.00918683
0.00841435
0.00456122
0.00519591
0.00872161
0.00659786
0.00581058
0.00380147
0.00655547
0.00348313
0.00490099
0.00659051
0.0061363
0.003853
0.00385194
0.00383515
0.00740412
0.00938778
0.00995382
0.0156836
0.00723168
0.00145663
0.0029005
0.00595678
0.00523693
0.00649994
0.00762921
0.0107274
0.00794775
0.00713721
0.0113195
0.00514856
-0.000503436
0.0057017
0.010601
-0.00241856
0.00700838
0.0217507
0.00482366
0.00888828
0.011535
0.000292856
0.0037961
-5.80028e-05
-0.00185353
0.019551
0.00450617
0.0180484
0.00904831
0.00818947
-0.00272401
0.00585523
0.00862224
0.00695677
-0.0014432
0.00536355
0.00652607
0.0074768
0.00761241
0.00736973
0.00702311
0.00475522
0.00673545
0.00663845
0.00651487
0.00409499
0.00565845
0.00372487
0.00731535
0.00759862
0.0075249
0.0048831
0.00732557
0.004512
0.00644887
0.0080873
0.00681376
0.006529
0.00764073
0.00649745
0.00711714
0.00211993
0.00704208
0.00407504
0.00331257
0.00790377
0.00730426
0.00719229
-0.00196043
0.00196439
0.0109047
0.0104973
0.00434167
0.0122376
0.00628712
0.00335523
0.00578868
0.006423
0.00531205
0.00712229
0.00211246
0.00592894
0.00590973
0.00505814
0.0031946
-0.0011601
0.00103168
0.00470662
-0.00469829
0.00709384
0.00401499
0.00478916
0.0026078
0.00504105
0.00485388
0.00714964
0.00807806
-0.00724956
0.00967889
0.0119377
0.00683856
0.00652458
0.0093346
0.00320869
0.00846148
0.00147925
0.00848225
0.00789198
0.00823555
0.00762988
0.00624272
0.00793992
0.00800861
0.00260013
0.0058574
0.0078859
0.00639882
0.00928794
0.0077076
0.00861048
0.000376222
0.00660957
0.00357551
0.00777206
0.00654429
0.00668463
0.0053342
0.00741284
0.0060622
0.00806777
0.00799349
0.00861406
0.00620671
0.00363948
0.0053373
0.00580247
0.00610163
0.00569664
0.00426518
0.00732117
0.0062001
0.00838184
0.00736534
0.00633567
0.0068293
0.00580383
0.0105224
0.00471863
0.0091871
0.00311459
0.00306424
0.00652244
0.00908815
0.00544391
0.0095674
0.00524519
0.00736704
0.00567725
0.00446792
0.00269299
0.00260895
0.0126669
0.00806476
0.00831687
0.0104705
0.0122244
0.0061199
0.0050665
0.0056566
0.00560057
0.00737645
0.00724467
0.00692925
0.00573279
0.010251
0.0121869
0.00960885
0.0100592
0.0101894
0.00806254
0.00838338
0.00863887
0.00568449
0.00977154
0.00778338
0.00703872
0.00717533
0.00729119
0.00162332
0.00709182
0.00932889
0.00573654
0.00445662
-0.000557911
-0.00270135
0.0106364
-0.00124636
0.00631929
0.00993547
0.00803951
0.00912668
0.00620144
0.00662625
0.00154952
0.00148491
-0.00202673
0.000875975
0.00579961
0.00658941
0.00655845
0.00975841
0.0128897
0.0136244
-0.000398895
0.00914883
0.00870137
0.00626065
0.00846833
0.00836254
0.00918118
0.00852079
0.00871171
0.00888208
0.00847281
0.00877732
0.00834368
0.00973193
0.00570577
0.00473595
-0.00139973
0.00495975
0.00619159
0.00698289
0.00829078
0.00793564
0.00712319
0.00821336
0.00257811
0.00677557
0.00687618
0.00839085
0.00785989
0.00771254
0.00823996
0.0109263
0.00831525
0.00915262
0.00101685
0.00613442
-0.00639912
0.00855654
0.0067754
0.00720848
0.00801329
0.00775318
0.00623465
0.00674976
0.00659412
0.0013157
0.00456089
0.00638021
0.00511507
-0.00618774
0.00789934
0.00730771
0.00907445
0.00751519
0.00279273
0.0113268
0.00999821
-0.00793605
0.0106455
-0.00258788
0.00431318
0.000908293
0.00230859
0.00251062
0.0102204
0.00445251
0.00890882
0.00177738
0.00130354
0.00183462
0.000199294
0.0115537
0.0129669
0.00156964
0.00194129
-0.00168265
0.00280749
0.00256602
0.00661595
0.01215
0.00633458
0.00660508
0.00593621
0.00609557
0.00350335
0.00601958
0.00785608
0.0068169
0.00658506
0.0068268
0.00685561
0.00628633
0.00804614
0.00594846
0.00975012
0.00668087
0.00734556
0.00835094
0.00840653
0.00930415
0.00874618
0.0081869
0.00777535
0.00771264
0.0127039
0.00827341
0.00481609
0.00622548
0.00770513
0.00876509
0.0101666
0.00782771
0.00792275
0.00633338
0.00719982
-0.00520184
0.00846899
0.00668841
0.00843767
0.00823841
0.00774995
0.00723882
-0.0059425
0.00603281
0.00337242
0.00804075
0.00734888
0.00702494
0.00663268
0.00845347
0.00775991
0.00753928
0.00935158
0.00770975
0.00654068
0.00626844
0.00719169
0.00621194
0.00760774
0.00580935
0.00796639
0.00695351
0.00752905
0.0104528
0.00811511
0.0070374
0.00819387
0.00824733
0.00483268
0.0011369
0.00256211
-0.00291651
0.00654627
0.00813828
0.0119352
0.00190528
-0.00690769
0.00869849
0.00793548
0.0101197
0.00973456
0.0116169
0.011441
0.0115245
0.00531455
SCALARS CoVolArea double 1
LOOKUP_TABLE default
1703.56
1749.86
1971.28
2036.29
2330.82
1475.22
3019.47
2215.74
1329.61
1637.52
1412.63
1531.02
2020.04
1972.5
3589.07
3140.8
2313.1
2591.34
2569.96
2459.94
2105.91
2652.54
2041.68
2904.27
2567.68
2046.8
1862.18
2109.92
2394.81
2717.02
2025.24
2582.92
2204.4
2722.13
2839.46
2698.32
3515.73
2144.53
2209.99
2847.38
1984.43
2744.64
1640.96
3183.8
1684.95
1811.63
2095.24
2163.67
1610.59
1882.83
1913.08
2073.18
1913.79
1682.79
3133.58
1871.67
2169.23
1734.87
2358.55
2272.09
2146.19
2453.45
2537.4
3006.24
2607.09
2653.21
1905.71
2563.26
2914.82
1927.67
2503.95
2233.9
1720.35
3515.58
1094.72
3020.99
2302.36
3627.61
1482.15
1951.49
1841.15
1802
1953.19
1958.45
2370.73
2061.97
2239.77
2484.06
3029.67
2914.86
2475.47
3031.52
1982.27
2629.7
1992.86
2891.91
2340.17
1914.01
2168.04
1954.2
2536.11
2455.69
2391.36
2251.76
2107.21
2929.46
2620.82
2112.5
2706.27
2206.79
2633.09
2156.22
2994.16
2586.22
2582.28
2401.33
2412.19
1975.77
2788.66
2876.5
2579.22
2922.46
2731.24
2758.82
3292.99
2633.88
2850.55
2544.47
2591.26
2183.57
2094.35
2492.99
2263.34
2709.89
2147.42
2283.09
2006.22
2410.28
2543.67
2985.71
2635.6
2057.92
2569.9
2964.94
1969.65
3261.29
2035.39
2867.59
2549.13
2383.29
2410.64
2780.68
2178.7
2533.12
2198.75
2548.39
2264.54
2337.2
2492.24
3285.52
1830.86
1596.92
1779.89
1565.86
1868.31
2462.24
1912.42
1730.53
2726.9
2355.72
3967.37
1824.69
1710.92
1537.49
1933
1742.01
1783.17
2466.91
2085.23
2472.81
1692.05
1793.59
1825.82
2816.76
1646.19
2235.25
1850.68
1764.53
1934.83
2803.94
2247.36
3116.64
1939.04
2117.02
2761.32
1814.04
1876.98
1787.9
2211.7
1737.48
1621.95
3063.54
2190.12
2148.86
2172.99
3134.7
1984.95
1815.16
1866.89
2281.84
1775.2
1964.79
2609.38
1794.93
2708.9
3068.49
3167.49
2648.3
2105.87
2168.79
2309.93
1896.92
2333.23
2062.31
2494.49
2115.71
2004.58
2597.04
2100.1
2309.38
1974.2
2357.64
2532.91
2675.42
2564.43
2724.85
2661.38
2426.43
2485.26
2714.37
2804.03
2914.1
3185.7
3135.72
2206.37
1921.79
2792.53
2457.64
2004.04
2235.66
2485.39
2646.56
2580.07
2850.75
2604.19
2384.24
2566.88
2819.14
2068.28
2333.88
1984.73
2237.05
1961.17
1568.52
2237.64
2446.84
2778.47
3123.87
3135.24
2844.38
1814.63
1858.27
1837.63
1764.07
1654.48
2461.83
2328.82
2046.18
1948.09
2825.32
1435.49
1479.1
2176.5
1711.18
2003.36
2851.87
2682.49
3466.59
3572.73
1457.95
2042.44
1652.43
1580.86
1863.47
3673.46
2515.42
1890.56
2169.12
3160.08
1881.49
1851.14
1938.82
1780.73
1882.49
1680.02
2570.91
1689.48
1836.3
1941.26
2683.91
1845.13
2549.45
1900.55
1798.63
1941.58
3086.56
2133.02
3084.63
2033.25
1893.63
2218.78
2059.58
2041.55
2130.69
2279.08
2147.4
2124.42
2707.51
2332.16
2302.2
2034.53
2176.65
3124.09
2949.99
2599.22
2389.19
2747.05
2165.02
2432.73
2806.34
2896.34
2714.24
3053.55
2825.78
2210.94
1976.27
2464.65
2466.03
1818.84
2557.82
3034.21
2196.24
3507.94
1753.62
2465.65
1926.61
3171.93
2503.04
2713.04
2338.5
2055
3038.96
2440.65
2274.43
1845.35
1910.19
1827.47
2633.16
2152.46
3271.31
1885.05
1714.22
2260.4
1978.38
2251.56
1858.58
2045.37
2743.74
2651.39
2463.78
2385.54
2213.82
2386.32
2397.54
2969.14
2316.03
2830.61
2105.57
2073.74
2329.59
2254.39
2122.36
2458.06
2616.7
2681.23
2488.36
2640.1
2679.24
2807.02
2607.94
2468.97
2636.79
2883.2
2102.38
2262
2396.72
2297.8
2022.63
2394.44
2769.41
1866.99
2394.01
1832.03
2850.32
2566.09
2328.54
1854.9
2346.96
2278.15
3199.09
2914.17
3188.87
2871.87
2840.59
2873.57
2133.2
2297.76
2379.84
2355.18
2237.88
2836.04
2258.34
2219
2091.12
2541.54
2212.59
2372.07
1818.26
1891.51
2030.88
2696.85
2509.45
2676.85
2958.54
2670.3
2678.99
2592.1
2494.99
2697.7
2937.97
3081.17
3283.19
3150.98
2564.3
2634.33
2679.77
2984.38
3275.88
3961.97
2699.37
3035.99
2983.68
2953.09
2633.31
2971.42
3039.87
2539.57
3090.78
2796.56
3887.49
3116.85
2851.28
2282.6
2585.99
2523.44
3130.65
3096.95
3504.91
2197.96
2152.99
2791.3
2239.78
2119.98
2174.72
2404.8
2042.47
2135.57
2316.07
2107.1
2049.49
2159.32
2729.34
2881.61
2530.06
2828.47
2466.48
2378.46
2020.24
1955.19
2321.32
2373.09
3140.41
2991.59
3061.85
2180.92
2193.14
2316.26
2174.96
1847.17
2069.79
2085.28
2956.04
2384.19
3561.13
2464.63
2415.97
2087.95
2189.16
2177.4
2368.32
1806.39
2162.83
2556.98
2301.8
2361.19
2604.41
3652.33
2462.31
3184.53
2372.55
2418.56
2016.73
1928.26
2536.69
3256.72
2001.07
3201.52
2418.72
2985.66
3155.2
2588.01
1943.49
2180.05
1741.24
3142.83
2549.62
2381.26
2632.86
2465.91
2377.8
2682.23
3571.66
3189.93
3109.4
2978.22
2774.92
2280.65
2244.05
2299.46
2154.41
2401.36
2863.19
2068.23
2250.21
2129.07
2088.98
2291.41
3106.7
2744.61
2746.69
2722.63
2642.45
2243.73
2289.7
2028.78
2531.4
2555.86
2470.55
2653.36
2831.77
2093.37
1808.7
1801.33
2155.56
2446.49
3008.03
2830.64
2587.41
2336.7
2147.77
2061.85
2456.93
3445.77
2038.99
2089.72
1967.31
2053.74
2222.08
2092.05
3523.47
2451.2
2175.77
2050.52
2419.21
2372.74
3150.56
1943.63
2154.55
1955.06
2052.08
2388.81
2335.26
2443.77
2163.53
2146.39
2208.37
2667.66
2536.83
2455.85
2350.23
2392.5
2613.7
2728.83
2730.33
1751.72
3099.72
2669.9
2744.75
3361.28
2005.48
1724.08
1734.97
2447.08
3069.86
1873.03
2174.58
1485.09
1824.17
1908.33
2455
1687.43
2388.31
SCALARS SignedDistance double 1
LOOKUP_TABLE default
154.868
153.066
130.838
121.744
112.215
159.177
173.142
117.655
162.898
158.348
176.127
170.429
211.14
157.057
193.238
191.593
154.367
106.039
113.466
127.835
147.111
188.22
150.741
190.376
127.408
122.603
161.125
167.441
126.162
157.748
148.176
121.049
155.091
120.94
98.4188
103.652
131.154
130.412
128.336
153.355
151.786
174.131
176.316
202.048
181.439
161.825
180.24
186.384
174.67
175.661
156.532
176.846
156.002
171.906
193.301
152.255
174.841
179.344
123.372
131.2
126.963
122.422
111.886
111.028
109.8
121.597
143.985
118.064
122.667
171.27
147.497
148.489
173.835
193.734
189.374
203.33
181.487
188.334
173.221
153.116
170.293
174.073
172.18
154.005
137.998
139.793
152.324
141.117
116.631
124.136
113.509
170.398
170.203
180.464
174.831
163.638
163.419
142.441
137.91
163.999
115.494
118.761
169.811
138.243
145.585
116.607
115.547
139.989
116.949
134.847
138.889
166.337
155.194
124.701
132.922
139.125
133.457
158.219
89.447
98.8526
111.944
130.274
119.727
90.1167
106.981
120.867
130.331
137.193
120.377
114.353
121.606
120.133
152.267
142.43
152.26
132.04
131.921
168.208
150.358
167.868
162.436
154.959
154.325
182.199
172.357
163.995
171.03
118.495
135.115
134.072
135.284
106.632
148.2
152.528
140.273
170.038
130.996
135.899
116.346
183.71
179.021
171.928
164.733
177.588
169.111
207.635
187.433
189.48
189.874
187.084
194.094
165.97
173.781
177.97
167.909
170.381
158.787
199.475
183.712
198.835
167.09
166.441
157.647
182.292
175.389
181.24
156.39
166.345
166.367
194.845
177.852
187.687
171.584
157.22
186.347
181.426
152.753
168.468
164.857
166.133
173.396
192.9
179.162
177.985
179.569
193.406
154.679
168.624
167.718
165.472
166.054
152.323
186.097
177.861
184.113
184.44
182.826
171.562
143.537
141.186
138.219
139.014
118.203
127.51
110.168
139.4
138.161
104
121.187
109.744
135.961
141.93
113.507
109.687
112.556
106.269
109.565
112.763
108.262
110.463
105.829
128.336
111.673
106.742
133.419
147.682
118.341
122.417
141.777
127.897
130.292
117.55
115.904
127.717
121.089
121.363
116.915
118.698
176.627
165.861
161.273
146.958
161.427
165.265
137.069
153.095
141.1
120.467
130.802
128.401
159.104
161.096
157.007
173.341
191.138
182.706
184.2
201.664
194.974
192.218
178.732
177.091
184.705
178.637
210.761
193.745
183.195
185.678
197.351
186.156
193.97
195.024
174.757
162.628
188.8
184.736
181.807
181.579
190.352
156.333
163.61
160.982
161.907
151.261
171.002
176.784
165.811
164.928
156.209
181.36
173.276
183.025
151.889
163.417
161.583
178.554
171.221
180.582
148.211
149.384
146.939
146.708
130.818
138.469
129.995
157.942
154.986
138.099
144.469
140.983
151.153
148.639
120.896
121.405
113.761
121.836
119.498
112.808
119.507
119.919
126.771
138.607
131.471
130.279
176.556
170.234
178.743
177.813
167.541
173.047
170.71
183.879
183.547
168.654
173.954
168.397
181.84
180.183
143.907
147.033
135.284
168.002
160.568
169.248
150.184
152.186
160.173
174.342
170.845
169.459
155.295
169.272
131.058
140.947
158.887
150.016
147.524
117.709
116.048
122.901
116.87
118.164
115.739
119.719
173.192
153.354
156.637
147.987
150.29
162.697
134.236
140.802
130.029
125.059
125.65
135.966
113.434
116.731
113.746
112.481
116.817
115.774
121.291
144.596
130.947
127.743
127.261
139.064
119.875
113.151
149.631
149.948
163.228
131.843
140.181
127.066
154.522
151.021
140.103
115.478
122.936
125.344
133.868
147.633
139.276
144.741
142.95
157.782
115.347
128.809
106.163
147.601
149.541
157.07
124.015
136.289
132.228
156.422
150.042
148.288
103.426
97.8927
113.823
93.0829
90.0375
88.9942
114.301
103.864
110.392
125.596
112.209
105.95
135.906
118.376
114.177
127.342
124.275
138.193
146.532
99.4017
98.9583
97.9229
95.2373
92.0116
99.5365
97.3905
123.984
138.802
145.744
141.386
137.865
123.638
118.349
129.005
115.284
122.247
118.297
135.231
114.036
115.135
126.919
121.758
119.389
115.268
123.116
123.978
118.57
122.359
117.721
124.165
120.41
123.529
171.296
161.732
168.033
134.548
149.381
141.004
139.803
145.229
134.16
128.13
127.441
133.147
119.526
123.858
126.805
121.22
143.054
129.721
142.254
172.123
172.756
167.91
173.817
160.091
150.488
138.467
173.623
173.658
157.569
155.348
165.928
159.544
152.25
173.726
168.349
140.161
155.862
148.257
135.946
148.778
146.168
149.593
156.9
174.438
176.285
171.384
169.043
174.851
165.855
162.651
164.992
166.225
158.56
162.006
172.062
168.467
169.209
163.377
168.755
163.754
118.145
120.729
118.42
114.582
118.299
146.285
141.449
143.348
136.23
127.332
147.127
127.545
137.101
142.876
141.318
125.657
132.952
125.063
154.586
118.869
132.794
150.712
153.816
99.4653
120.735
106.985
95.3041
99.9884
161.485
161.763
162.602
147.202
135.645
117.061
126.266
141.156
171.654
141.46
151.138
173.504
171.486
130.149
149.514
140.029
130.024
133.17
185.979
175.189
183.194
177.094
164.258
145.272
153.237
159.179
144.595
141.626
141.693
132.092
122.222
152.6
129.072
139.695
148.046
144.427
115.547
115.482
113.937
113.588
120.865
131.638
123.931
120.603
173.37
177.309
174.381
179.516
187.25
176.748
163.926
173.825
185.076
188.452
157.476
181.647
171.069
155.969
159.085
192.023
175.876
183.633
