# vtk DataFile Version 4.2
vtk output
ASCII
DATASET POLYDATA
POINTS 642 double
-152.648 286.787 16.5735
150.869 295.284 13.6747
-154.047 -247.782 45.7411
166.127 -255.633 46.3086
1.31955 -180.231 349.457
2.23172 144.026 306.673
2.63087 -104.175 -161.451
1.76609 214.139 -226.935
225.167 51.6406 -122.863
220.035 11.0135 221.333
-203.68 50.7457 -121.689
-202.73 14.3386 217.462
-187.252 167.229 80.4723
-125.028 91.2764 295.918
-56.7308 203.57 152.67
63.0823 206.724 158.043
1.50612 340.57 3.39022
102.031 321.884 -119.685
-92.5939 316.128 -116.671
-145.477 130.083 -215.144
-240.91 195.662 -48.5226
-216.332 27.1774 46.6147
133.426 94.8573 301.676
180.345 157.508 92.9171
-147.861 -99.4887 319.639
4.53352 10.8674 390.063
-205.707 -138.875 -28.3826
-198.542 -147.361 187.965
3.28758 50.236 -271.756
-126.407 -24.4532 -196.711
235.976 201.914 -55.3938
153.374 132.717 -218.857
218 -151.177 192.003
159.961 -100.732 324.468
110.702 -268.762 250.518
-105.455 -265.832 249.158
0.599755 -285.224 45.5594
-95.6644 -235.75 -88.3822
104.548 -238.68 -90.6686
134.538 -26.8543 -199.902
217.597 -148.958 -30.806
233.832 13.3715 56.061
-186.499 233.465 49.0249
-145.891 180.591 109.76
-120.796 271.047 60.3369
-172.947 53.6196 263.315
-158.206 109.753 225.412
-189.672 73.0745 189.182
-32.491 172.613 255.578
-96.0199 147.092 254.48
-63.2893 122.832 310.921
-43.1524 299.464 60.382
-72.2611 332.417 7.35869
39.5501 174.57 255.633
4.35158 209.648 165.525
82.5729 336.551 7.22999
51.3493 300.351 60.0461
119.067 276.327 58.0407
-53.9553 360.045 -50.8075
-124.773 318.055 -47.225
132.72 330.593 -50.8058
60.3588 361.947 -51.1241
-49.7977 274 -182.309
1.77408 329.024 -125.833
55.1082 275.609 -183.822
-181.681 260.204 -86.9277
-205.603 253.443 -16.2789
-80.8122 174.841 -233.086
-126.55 230.516 -170.62
-225.106 153.98 -77.2799
-204.648 179.427 -126.432
-187.993 86.7794 -170.32
-231.154 196.071 14.9021
-204.764 68.5321 -34.1816
-237.482 160.869 -21.986
-197.303 150.08 53.7059
-208.393 11.2145 146.716
133.105 186.811 121.916
187.995 239.473 45.2275
71.322 124.16 314.131
103.151 150.22 258.801
207.029 69.8623 192.499
166.72 110.545 233.843
184.673 54.9656 268.839
-65.9758 57.8237 353.343
3.31535 85.2967 356.318
-182.923 -46.4326 272.981
-140.898 13.8945 319.166
1.77744 -63.2737 381.208
-71.353 -34.5554 366.507
-86.7211 -147.214 351.522
-216.076 -57.8477 105.028
-202.78 -75.4824 212.087
-193.285 -57.0812 -71.0704
-218.214 -71.876 8.55824
-178.867 -185.854 120.526
-212.035 -146.699 38.9971
-190.45 -201.175 3.18992
-148.841 46.9327 -220.395
-179.443 11.4722 -161.407
2.60999 119.735 -269.476
-81.6371 91.3807 -262.091
-74.7835 -71.831 -192.754
-77.5718 3.66764 -247.036
1.73377 -22.5111 -243.285
133.113 235.576 -175.52
85.5557 177.162 -235.117
207.567 257.672 -19.1535
186.33 268.004 -90.8129
204.004 85.177 -175.732
207.475 180.917 -133.03
230.787 133.236 -84.7722
195.84 -195.121 121.03
190.67 -218.933 217.679
141.001 -262.552 174.63
197.425 -47.0497 278.564
212.35 -133.737 260.243
223.511 -79.4377 213.244
65.1747 -236.874 322.092
145.89 -197.189 311.154
92.5896 -151.314 352.649
61.5496 -290.844 183.059
98.3651 -285.384 45.0604
-60.6108 -235.144 319.773
1.33591 -275.477 255.209
-89.8724 -283.168 45.5455
-57.6421 -289.285 182.241
-131.395 -259.09 171.441
65.8683 -281.906 -28.043
143.049 -262.922 -28.3534
-132.792 -256.709 -26.179
-60.9754 -281.82 -27.7072
61.4912 -190.694 -131.036
0.88507 -238.794 -91.8966
-55.5407 -190.008 -131.467
178.496 -204.355 -67.511
208.849 -209.077 0.932559
79.9991 -74.2172 -194.342
122.962 -169.047 -128.679
209.15 -51.4213 -71.9144
183.51 -115.385 -96.2811
192.641 11.1079 -165.943
224.635 -154.208 39.3693
218.76 55.1674 -48.8524
233.543 -78.9666 10.022
230.23 -60.771 108.384
228.832 14.0837 155.58
75.959 -30.6694 374.123
149.843 13.7865 326.129
72.608 57.7194 358.94
-174.483 -209.306 218.799
-138.879 -192.409 305.51
-194.148 -134.868 254.666
-114.024 -164.258 -125.707
-164.543 -198.192 -62.8023
-175.715 -107.758 -93.6211
158.967 46.926 -224.442
81.5459 3.06541 -249.117
84.0348 91.3858 -265.67
218.852 99.3542 65.2178
239.565 151.832 -22.7947
226.907 203.494 10.5691
-172.755 261.199 34.0007
-156.102 254.822 56.312
-136.424 280.428 42.0318
-170.655 172.493 95.9163
-171.536 226.013 67.7085
-196.855 204.9 61.8953
-94.9367 256.093 79.2386
-140.118 246.157 72.2446
-103.159 192.387 129.921
-189.988 34.51 241.33
-185.633 62.5977 227.107
-198.219 42.8964 206.538
-144.961 101.043 262.597
-166.695 83.5196 246.946
-151.242 72.7168 281.602
-176.22 126.969 134.528
-175.979 93.2248 207.597
-163.166 129.084 166.309
-15.5321 160.435 281.728
-48.2664 150.466 285.003
-28.5961 134.624 310.949
-78.9112 167.2 229.227
-65.2038 161.235 256.902
-46.9833 180.37 229.39
-95.234 108.335 305.833
-82.0217 137.212 283.355
-111.051 122.424 277.241
-144.98 141.417 186.693
-130.205 130.078 241.445
-117.2 153.118 211.617
-95.6292 300.679 35.983
-110.267 310.945 10.9485
-52.6949 267.724 88.239
-76.7882 287.198 58.6579
-43.4084 341.488 6.18613
-57.9142 319.028 33.6024
-27.8351 324.17 33.5687
20.8775 161.091 282.138
2.71411 176.333 258.309
36.6371 209.457 165.162
21.1415 188.351 232.1
55.058 184.364 228.658
-13.7575 187.019 232.64
-25.9567 208.716 162.479
113.811 320.652 9.20118
99.7508 309.074 34.398
135.296 288.207 38.9046
32.7733 323.023 32.2232
68.209 321.729 33.3423
50.6571 342.973 5.16995
93.6926 256.807 85.1213
81.7573 293.177 57.9167
58.9526 268.08 91.1819
-17.7808 269.857 99.5152
22.6439 269.078 100.8
0.806351 299.897 64.3182
-97.5361 331.966 -21.7067
-141.77 304.307 -15.8814
-28.7526 355.544 -23.7953
-63.1569 349.841 -23.9768
-110.165 323.475 -80.4837
-86.9378 346.606 -51.7221
-75.1611 345.558 -82.1481
140.876 315.354 -21.2781
107.313 339.879 -23.1981
83.513 349.582 -83.799
98.4729 352.106 -52.2192
120.704 331.988 -82.4915
72.4529 353.12 -23.8519
33.846 356.367 -24.1623
-24.5101 246.596 -208.376
1.65371 277.124 -187.617
28.3717 247.377 -209.225
-52.2757 328.973 -125.898
-27.4281 305.27 -156.614
-72.3632 298.868 -150.282
80.3915 302.399 -152.182
31.48 305.222 -156.483
58.3264 330.842 -126.359
2.20067 360.716 -51.0856
33.5777 354.058 -87.8634
-28.9305 353.034 -87.4403
-173.577 285.945 -29.6972
-181.852 272.346 -1.09389
-137.368 289.638 -101.708
-156.516 291.682 -65.953
-225.526 226.629 -31.5448
-197.673 259.595 -48.2518
-213.596 228.752 -67.8923
-41.4946 196.232 -231.624
-64.5271 229.117 -209.844
-136.028 180.345 -194.254
-102.416 204.844 -204.997
-115.585 152.237 -228.084
-87.853 255.82 -179.928
-109.441 274.895 -145.141
-209.293 95.1259 -102.019
-206.915 115.993 -121.786
-200.869 66.9878 -144.767
-226.114 189.085 -89.8656
-219.314 165.607 -100.663
-236.465 175.789 -61.5401
-169.405 108.428 -195.484
-192.806 136.112 -146.435
-171.564 153.481 -170.797
-158.76 249.655 -129.477
-171.071 204.639 -150.978
-198.197 219.546 -110.409
-198.098 246.313 16.4398
-241.483 198.043 -15.3617
-221.918 223.047 -0.908933
-211.277 215.213 34.4797
-214.806 191.91 46.353
-207.108 59.7832 -94.0127
-218.82 120.656 -59.3533
-225.89 120.004 -10.7496
-231.502 132.259 -21.5882
-216.849 59.0158 19.7996
-238.975 163.529 -36.6247
-244.566 175.652 -30.8015
-200.691 44.2344 176.81
-206.137 14.5897 191.958
-196.767 168.419 68.9135
-190.829 96.8343 125.323
-216.748 10.6225 90.1025
-203.893 55.0537 115.884
-212.533 81.4993 39.3049
-239.208 178.675 -8.73854
-231.007 162.937 -1.96406
-225.174 184.002 24.1865
157.232 260.036 54.2189
174.483 265.776 33.1685
97.3875 198.488 142.087
136.512 249.522 74.1106
194.535 217.211 51.8266
170.153 235.432 62.995
161.366 173.532 104.196
34.9202 134.787 311.991
55.8994 151.705 286.572
119.225 125.608 282.467
90.2449 139.58 287.032
103.225 111.03 310.657
73.0646 164.148 258.487
84.4156 172.25 231.369
216.061 41.4637 207.509
198.734 62.8285 231.326
204.701 32.1939 246.131
175.698 119.599 187.242
188.008 91.7336 213.76
192.178 102.523 166.175
160.867 76.2646 287.515
176.926 85.8266 253.253
153.877 104.291 268.947
119.609 157.046 221.441
137.28 132.58 248.773
150.731 139.186 204.885
-29.6382 106.833 336.125
2.5132 117.98 332.766
-98.8803 77.7457 326.131
-66.5024 92.6832 334.009
4.09514 47.6009 376.269
-30.3575 71.122 359.088
-29.3015 34.1935 376.169
-193.262 -15.5913 246.804
-180.207 12.7762 270.034
-144.646 -41.7985 319.658
-164.428 -15.7808 296.46
-170.106 -73.1853 298.056
-159.373 36.474 292.795
-135.743 55.2157 309.852
-1.15234 -127.42 356.068
-45.8787 -111.776 360.243
-50.8878 -165.503 355.81
-28.7886 -6.96622 386.829
-33.9936 -47.7467 378.727
4.39011 -18.9897 394.961
-119.73 -125.128 338.403
-83.3595 -92.6526 356.514
-114.302 -71.2305 344.981
-105.774 37.121 340.07
-110.36 -11.4552 346.04
-67.2972 14.709 367.393
-206.798 -21.5964 180.779
-204.334 -29.7003 213.546
-221.479 -19.2081 76.7754
-216.746 -20.2001 123.05
-200.69 -118.492 202.464
-204.755 -67.4439 167.844
-202.834 -104.129 152.25
-195.998 13.2054 -111.44
-198.656 -3.32495 -59.3796
-213.932 -108.786 -9.10914
-212.021 -74.8558 -20.711
-203.127 -108.33 -41.8562
-214.6 -23.6425 1.65319
-220.642 -23.4093 32.1526
-168.423 -225.008 76.5485
-190.121 -201.532 43.2894
-175.582 -226.836 22.362
-191.395 -151.874 112.561
-198.129 -172.829 70.6637
-191.135 -170.927 163.506
-200.681 -170.411 -13.6492
-204.285 -172.833 23.1215
-213.207 -144.04 6.64017
-219.294 -64.1398 45.6154
-217.307 -111.972 20.9696
-212.129 -103.661 67.4107
-186.881 47.5592 -169.85
-194.704 29.6249 -142.079
-150.12 87.425 -221.664
-170.204 67.2717 -199.12
-157.308 -2.86646 -181.486
-165.591 28.733 -193.66
-141.496 10.797 -210.752
1.86411 164.203 -250.276
-43.0073 148.569 -255.46
-40.4432 70.2561 -271.806
-41.8206 105.301 -269.187
3.61572 83.6079 -277.664
-84.0861 130.341 -253.501
-116.917 112.607 -243.882
-49.4236 -86.2789 -183.385
-38.9529 -41.1638 -227.253
2.25658 -48.5587 -222.053
-105.351 -12.3726 -224.054
-74.5878 -28.0159 -227.744
-97.1244 -49.3339 -199.315
2.02969 10.5429 -260.283
-40.5558 -10.44 -248.391
-41.25 24.1082 -262.528
-119.592 68.3464 -245.739
-81.5111 46.1589 -260.257
-115.598 25.2408 -238.874
69.9409 230.958 -211.686
[...]
POINT_DATA 642
SCALARS Mean_Curvature double 1
LOOKUP_TABLE default
0.0120431
0.00957033
0.0101097
0.0107463
0.000273188
0.0132939
-0.0148096
0.00449596
0.0176797
0.0109313
0.0109438
0.0151125
0.00389964
0.00897374
-0.00187524
0.00111541
-0.00055728
0.0119118
0.00962571
0.00922326
0.0237974
0.00981254
0.00974586
-0.00119883
0.00607128
0.0130171
0.0113379
0.00559119
0.00455988
0.00556091
0.0124868
0.00830276
0.00689539
0.00803961
0.00901543
0.0129338
-0.000791501
0.0112943
0.0120316
0.0058263
0.00617232
0.00135572
0.0103011
-0.00399781
0.0102285
0.00926614
0.00778545
0.00487791
0.00779224
0.00740367
0.00904451
0.00714136
0.0107111
0.007159
-0.00235723
0.0127946
0.00563956
0.00315607
0.0227964
0.00759564
0.0172226
0.0196555
0.00763915
0.00183811
0.00752829
0.0092124
0.0159634
0.0062198
0.00378648
0.00309843
0.0130311
0.00706284
0.0281749
-0.00867911
0.0105691
-0.0127666
-0.000510562
-0.00280737
0.0136308
0.00947546
0.00758991
0.00832628
0.00671586
0.00895103
0.00736336
0.00961574
0.0041206
0.00870485
0.00675272
0.00428763
0.00975419
0.00320621
0.00285926
0.000355367
0.00738156
-0.0110759
0.00934462
0.01108
0.0124779
0.00999726
0.0064502
0.00993073
0.00805759
0.0108444
0.00709371
0.00495128
0.00543732
0.0132674
0.00956381
0.0106697
0.00651256
-0.000123481
-0.00609843
0.0155944
0.00594435
0.00290415
0.015005
0.00514028
0.0118368
0.0107718
0.00850187
0.008511
0.00751137
0.0118306
-0.00458051
0.00834803
0.00804796
0.00969794
0.00830754
0.0121544
0.0119831
0.0110672
0.00453701
-0.00107804
0.00714088
0.0109928
0.0160663
0.00782942
0.00889343
0.000179094
0.00806594
0.00874301
0.00262391
-0.00925152
0.00213401
-0.000886793
0.00686502
0.00620786
0.00741344
0.00780958
0.00908862
0.00986236
0.0139713
0.00703196
0.00953552
0.0109364
0.0117616
0.00978252
0.00923275
0.000390829
0.00928099
0.0122386
0.0112841
0.0118955
0.0110657
0.00245238
0.0076323
0.0173114
-0.00188019
0.00612709
-0.00527735
0.00892857
0.00922277
0.0102322
0.00887322
0.00914459
0.00909652
-0.0016538
0.0084669
0.00446761
0.00805133
0.00844157
0.00719312
0.00359889
0.00793811
0.00622122
0.00905827
0.00920086
0.0087551
0.00668247
0.00808767
0.00543541
0.00432721
0.00604603
0.00149981
0.00137885
0.0132723
0.00921881
0.00739169
0.00772911
0.00933249
0.00181309
0.00771151
0.00838552
0.00793465
0.00149
0.00899595
0.00721004
0.0101717
0.00187222
0.0116349
0.010902
-0.00210032
0.00378133
0.00335669
0.00746994
0.00569607
0.00283489
0.00751423
0.00788725
0.0117379
0.0120118
0.00965016
0.01969
0.0139557
0.00438016
0.0112085
0.0128372
0.0216203
0.0125967
0.0123541
0.0104771
0.00772918
0.00731832
0.00770673
0.0124232
0.0062849
0.00890865
0.00935318
0.00368086
0.0102988
0.0106516
0.00984899
0.0104022
0.0153987
0.010409
0.00509568
0.00742369
0.0134236
0.0101618
0.00619676
0.00330261
0.00845225
0.00333805
0.0052106
0.0082951
0.0075225
0.00258447
0.00115895
0.00701
0.0132716
0.019627
0.00827621
0.0177501
0.00899579
0.00189698
0.00272716
0.00770954
0.00663439
0.00897845
0.00888083
0.0289239
0.00779126
0.0109311
0.0317085
0.00486939
-0.00245302
-0.00565682
0.0261696
-0.00129588
0.00744626
0.0408983
0.00343088
0.00906817
0.0240233
0.00147151
0.0041118
0.000809731
-0.00103766
0.023389
0.00234276
0.0113313
0.0118339
0.0118262
-0.00192537
0.00567015
0.00936839
0.00688411
-0.00117117
0.00566123
0.00756077
0.0097667
0.00985038
0.0098574
0.00813633
0.00510625
0.00988632
0.00724482
0.00780332
0.00533847
0.00567443
0.0018286
0.00988373
0.00960912
0.00999718
0.00497425
0.00831845
0.00441742
0.00759167
0.0111137
0.00874561
0.00838741
0.00945822
0.00768712
0.00877959
0.00372505
0.009322
0.00327429
0.00501167
0.0102736
0.00945457
0.00932462
-0.00417377
0.000980247
0.0105605
0.0136403
0.00546154
0.0202953
0.00671854
0.00501903
0.00741638
0.00794365
0.00661882
0.00861659
0.000669453
0.00754612
0.00740056
0.00689919
0.000938609
-0.00202387
0.000837285
0.00412276
-0.00362068
0.0077523
0.00506576
0.00408798
0.000769103
0.00823127
0.00643001
0.00801103
0.0111637
-0.0113761
0.0177284
0.0161706
0.00925553
0.00834363
0.0140613
0.00347074
0.00790235
0.000807806
0.0112375
0.0123918
0.0104264
0.0103872
0.00672596
0.00999454
0.0100365
0.00207996
0.00699463
0.00910254
0.00837964
0.0139827
0.0105137
0.0124408
-0.00106278
0.00766117
0.00238318
0.00969081
0.00757703
0.0104956
0.00654047
0.0096845
0.00768535
0.0112571
0.0111132
0.0116889
0.00751357
0.00315081
0.00470783
0.0070204
0.00761624
0.00692385
0.00445135
0.0103358
0.00901947
0.0135323
0.00811721
0.0116495
0.00936954
0.00604642
0.0147166
0.00717818
0.0149007
0.00266912
0.00325073
0.00787155
0.0136396
0.0079291
0.0119194
0.00652823
0.011266
0.00629273
0.00618514
0.00184514
0.00453312
0.0163308
0.00734071
0.00885679
0.0139005
0.0137226
0.0104818
0.00747545
0.00595635
0.00920142
0.00864121
0.0102052
0.00668753
0.00263027
0.0110511
0.0132587
0.0138358
0.0165422
0.00832965
0.0107637
0.0116856
0.0123515
0.00578069
0.012203
0.00962064
0.0113912
0.0100289
0.00919973
0.00502887
0.0091465
0.0128621
0.00538198
0.00500765
0.000239616
-0.0059321
0.0158057
-0.00362626
0.00783148
0.0131404
0.0114196
0.0116132
0.00753504
0.00809536
0.00460486
0.00415018
-0.0025642
0.00248992
0.00628499
0.00757154
0.00735177
0.013004
0.019954
0.0214493
-0.00602061
0.0133165
0.0118223
0.00814412
0.00850546
0.0117134
0.0135083
0.0105507
0.0117906
0.0123519
0.0118677
0.0128597
0.0114969
0.0126915
0.00681987
0.00502407
-0.00465165
0.00621005
0.00760452
0.00854563
0.0089515
0.0107818
0.00947026
0.00987301
0.00221507
0.00933675
0.00880969
0.0118099
0.0104305
0.0103719
0.0112627
0.0141274
0.0120304
0.0126925
-0.000186076
0.00592414
-0.00761233
0.0152859
0.00994017
0.0113903
0.0106587
0.00901288
0.0119876
0.00830944
0.00690571
0.00155461
0.00476193
0.00669605
0.006694
-0.00997428
0.010943
0.00647642
0.0119181
0.0109074
0.00342631
0.0111123
0.0162886
-0.0103558
0.00832802
-0.000817199
0.00415429
0.000854977
0.00467382
0.00317909
0.0130653
0.00236706
0.0123183
0.00220767
0.000592313
0.00146005
-0.000372842
0.0163416
0.0213366
0.00260603
0.000811643
-0.00254938
0.0031861
0.00343286
0.00902743
0.0170304
0.00739433
0.00862972
0.00732048
0.00781238
0.0051195
0.00638079
0.009808
0.00788908
0.00858747
0.00893763
0.00851296
0.00735889
0.0105909
0.00350516
0.0114818
0.00952464
0.00925615
0.0119559
0.0125065
0.0102449
0.0127359
0.0111734
0.0109999
0.010517
0.0103684
0.0075449
0.00874046
0.00639823
0.0120019
0.0126952
0.0157847
0.00888924
0.00986231
0.00974625
0.0166906
-0.00851594
0.0122637
0.00858951
0.0111384
0.0113269
0.0103151
0.00979328
-0.00935101
0.0103684
0.00440701
0.00903142
0.00900024
0.0105365
0.00664043
0.0108344
0.00976666
0.00941439
0.0129905
0.0105389
0.00744506
0.00743237
0.00923732
0.00722246
0.0095344
0.00665624
0.0110052
0.00896633
0.0105354
0.0137214
0.0108109
0.00895782
0.0111225
0.00785848
0.00983209
0.00172021
0.00185193
-0.00139295
0.00633637
0.0137678
0.0156095
-0.00143503
-0.0113084
0.0121181
0.00462983
0.0173739
0.0166091
0.0183274
0.0177439
0.0160381
0.00556583
SCALARS CoVolArea double 1
LOOKUP_TABLE default
1158.69
1221.3
1471.43
1540.46
1934.84
978.136
3354.8
1854.08
778.817
1103.7
935.579
993.652
1113.05
1326.58
3543.21
2778.21
1731.8
1927.96
1940.71
1852
1149.73
1916.32
1371.96
2591.74
1977.9
1287.69
1200.27
1676.84
1774.24
2436.33
1211.5
1990.84
1746.34
2147.76
2126.99
1956.11
3361
1440.81
1510.27
2577.92
1362.04
2333.18
990.946
2992.61
1166.83
1190.66
1468.34
1702.7
1053.64
1286.76
1310.88
1537.31
1262.94
1124.34
2697.11
1164.61
1663.93
1281.05
1454.25
1601.59
1404.34
1566.74
1971.16
2441.47
2062.61
2020.43
1189.77
2025.52
2418.68
1424.11
1791.29
1638.06
774.986
3917.37
465.66
3221.77
1963.64
3398
823.351
1351.07
1230.24
1295.86
1356.69
1348.99
1712.77
1447.99
1680.31
1843.62
2601.79
2311.99
1872.5
2665.5
1581.47
2261.03
1430.31
2492.98
1776.64
1256.19
1417.61
1325.44
1973.6
1731.68
1722.03
1534.69
1543.62
2393.56
2102.28
1403.3
2022.84
1558.44
2018.52
1531.87
2514.02
1739.85
2052.06
1874.63
1583.67
1479.83
2140.99
2143.89
2031.34
2442.92
2203.23
2113.35
2656.01
2061.04
2313.54
1989.66
1933.69
1492.46
1409
1797.89
1791.72
2138.9
1613.49
1521.12
1270.35
1762.04
1932.33
2573.94
2095.24
1465.7
2082.7
3045.89
1409.95
2973.3
1585.08
2227.5
1908.76
1709.96
1621.11
2011.35
1371.01
1983.34
1493.14
1932.03
1517.08
1643.77
1767.83
2779.73
1292.46
856.932
1107.92
917.743
1202.8
1846.67
1445.81
1093.85
2719.97
2139.5
4141.11
1205.56
1108.36
953.566
1281.53
1138.06
1171.46
1927.08
1533.55
1760.24
1114.63
1202.67
1230.84
2522.68
1095.85
1808.67
1242.56
1160.7
1284.79
2163.14
1562.28
2720.31
1350.93
1513.38
2487.29
1414.96
1215.23
1190.93
1641.35
1171.71
1049.24
2572.99
1707.1
1646.37
1697.55
2702.24
1348.78
1196.96
1223.39
1768.06
1168.03
1334.99
2463.89
1370.19
2330.57
2545.11
2674.32
2098.5
1444.19
1524.53
1512.69
1133.39
1693.06
1285.9
1683.35
1485.98
1271.26
1791.05
1266.84
1592.46
1188.88
1574.7
2007.25
2142.6
2049.22
2050.64
2128.98
1851.13
1912.99
2209.84
2160.87
1970.75
2385.75
2309.59
1483.34
1232.8
2219.97
1829.52
1261.19
1556.68
1749.66
2189.98
2031.08
2346.73
2098.95
1813.75
2041.4
2288.88
1581.42
1762.87
1333.63
1379.67
1287.5
753.02
1672.92
1891.12
2238.25
2493.26
2501.78
2064
1159.44
867.678
1115.84
1032.41
759.138
2377.78
2125.78
1301.13
1528.26
2402.04
856.225
515.775
1793.84
1204.96
1368.65
2682.23
2319.12
3572.62
3670.97
532.403
1818.65
925.932
977.182
1164.52
3499.08
2241.23
1414.03
1741.41
2839.49
1306.83
1271.1
1261.51
1164.09
1253.59
1114.07
2118.94
1086.2
1243.31
1347.95
2264.79
1321.6
2236.34
1275.98
1190.36
1264.26
2645
1456.38
2627.17
1421.32
1287.79
1554.46
1452.51
1416.44
1520.96
1581.56
1570.6
1533.24
2133.46
1760.01
1734.2
1406.78
1497.55
2942.88
2551.54
2072.6
1649.02
2168.33
1412.9
1853.67
2303.79
2330.67
1986.55
2393
2098.19
1873.01
1415.63
1913.93
2054.35
1475.2
2342.86
2998.19
1772.99
3616.6
1141.86
2134.41
1462.87
3163.58
1966.14
2270.7
1762.99
1410.68
2801.35
1806.48
1663.12
1191.24
1254.17
1110.02
2054.36
1485.03
3029.6
1213.98
1084.36
1532.08
1315.38
1799.62
1207.7
1359.55
2339.88
2137.03
1783.92
1757.58
1556.24
1762.95
1673.53
2803.96
1827.59
2749.49
1437.37
1481.81
1769.36
1690.38
1511.25
1802.76
1783.78
1877.16
1661.48
2104.65
2237.53
2231.58
2064.98
1912.66
2111.87
2356.27
1436.36
1587.54
1619.7
1628.57
1283.52
1724.31
2145.95
1171.68
1788.82
1148.68
2342.45
2045.12
1754.91
1174.16
1773.52
1511.78
2550.19
2139.76
2571.26
2401.84
2434.62
2354.97
1338.14
1734.63
1837.04
1669.24
1564.73
2062.09
1685.8
1644.59
1483.56
1839.4
1574.05
1809.07
1354.69
1229.43
1222.82
2064.55
1786.31
2214.38
2255.1
1958.35
2037.58
2059.81
1798.67
2003.86
1983.71
2257.88
2457.45
2663.03
1966.1
1861.21
2136.85
2670.4
2937.36
4047.8
2060.77
2487.21
2247.21
2408.02
1970.38
2438.88
2334.12
1961.36
2562.81
2247.75
3876.11
2652.84
2443.26
1642.54
2011
1755.04
2299.22
2253.84
3164.96
1523.41
1492.83
2244.88
1624.16
1442.14
1487.46
1699.88
1390.79
1460.47
1588.03
1405.81
1378.85
1503.4
2160.59
2772.79
2181.3
2674.83
1828.11
1889.73
1414.64
1328.46
1805.4
1700.8
2478.67
2302.84
2396.23
1482.58
1543.29
1587.28
1491.04
1177.57
1341.71
1351.59
2808.51
1768.59
3484.92
1763.88
1843.15
1441.29
1469.72
1607.59
1750.75
1184.77
1576.14
2055.29
1891.6
1940.78
2096.95
3715.3
1657.77
2781.47
1586.54
1736.56
1322.25
1268.12
1940.61
3108.58
1592.02
3031.03
1929.9
2875.08
3141.19
2248.68
1276.78
1756.42
1137.3
3079.39
2292.46
1975.8
2280.78
1908.81
1614.39
2057.87
3329.79
2881.24
2592.71
2536.56
2178.91
1481.56
1668.68
1638.59
1550.5
1831.82
2279.51
1471.11
1525.43
1516.02
1475.98
1622.23
2422.63
2013.79
1962.52
2316.16
1875.41
1624.06
1741.49
1281.1
1812.14
1845.4
1775.8
1958.54
2080.83
1498.43
1084.17
1193.99
1513.86
1755.53
2112.29
1932.26
1624.25
1650.8
1460.84
1417.49
1782.64
3377.75
1344.52
1394.35
1302.02
1375.32
1513.19
1419.56
3498.83
1829.72
1559.34
1401.12
1667.51
1610.26
2746.92
1267.12
1465.47
1298.66
1362.97
1666.44
1841.21
1788.01
1563.63
1555.58
1539.47
2161.21
1843.86
1852.97
1696.9
1674.59
1812.64
1940.77
1919.76
1231.73
2585.31
2293.86
2463.08
3156.69
1573.56
936.069
1138.35
2392.12
2866
1124.42
1697.35
793.511
1039.81
1048.65
1710.43
900.215
1785.05
SCALARS SignedDistance double 1
LOOKUP_TABLE default
107.576
106.455
88.8047
82.2275
79.5763
108.148
119.892
80.2894
115.468
107.635
121.504
117.576
154.474
106.326
131.826
131.567
106.85
69.9781
76.0622
86.2901
114.04
128.27
102.009
133.08
85.8486
83.2579
110.479
115.201
85.4276
107.913
105.532
81.0812
106.35
81.8687
67.1326
72.0021
91.689
87.8201
87.2098
105.152
102.198
117.728
123.939
144.344
125.363
110.24
124.065
127.404
118.006
119.618
106.019
120.76
109.072
116.034
134.785
106.33
119.034
123.954
88.4426
92.287
90.029
88.2235
74.3314
76.3169
73.1121
80.6992
100.49
79.1519
83.1303
118.474
107.012
102.644
130.135
136.373
130.611
145.86
122.348
128.996
119.998
103.777
115.226
118.488
116.927
105.097
92.6719
94.4085
103.79
94.9451
79.694
84.2425
76.826
114.793
115.334
124.558
118.379
119.017
113.064
98.1684
94.0283
114.681
77.4297
79.8126
125.386
94.1948
99.5404
78.1962
77.6687
97.5231
77.6232
92.4895
98.0528
119.7
114.781
91.1146
95.5646
94.1717
95.5496
107.545
59.5564
66.5372
75.6562
92.318
80.8894
59.3654
77.6638
80.8204
92.0272
99.5805
80.4576
75.416
80.6652
80.2732
106.433
100.633
106.27
89.8965
92.3405
124.256
105.494
115.859
110.485
107.559
104.96
127.481
117.483
111.033
115.518
80.0199
91.0422
90.2256
95.321
72.2614
106.009
105.022
95.2116
118.868
88.8341
92.5333
78.7773
129.143
125.377
120.67
114.788
123.153
117.513
152.237
130.925
138.068
130.62
129.745
133.249
113.789
119.25
122.177
114.293
116.38
107.576
138.084
126.434
136.591
113.152
113.063
106.982
123.39
118.925
122.34
105.873
113.191
113.164
135.084
121.904
128.76
120.02
111.182
126.761
124.477
106.52
116.363
113.346
112.526
117.599
134.719
121.993
120.453
121.685
133.676
109.195
117.125
116.678
112.674
114.716
105.911
126.714
121.322
125.216
126.229
125.092
115.777
101.014
97.4977
96.5035
96.6521
81.9495
90.541
75.4368
97.2798
96.3835
70.5336
86.3526
74.9806
95.1992
100.955
76.2385
72.8486
75.5915
70.2217
73.7888
76.0246
72.8056
74.6092
70.9414
94.5717
78.6038
72.2152
92.2182
102.022
79.1039
82.7173
101.187
87.2946
88.8871
79.7464
77.4694
86.7393
81.2041
81.1952
78.0105
80.3665
121.907
119.275
114.279
108.843
113.856
117.574
94.0315
110.044
99.7707
79.668
91.5474
88.1581
110.842
122.951
111.158
124.463
140.222
125.763
129.093
144.191
138.924
136.633
126.376
128.146
125.118
121.263
151.837
132.233
124.599
125.275
139.674
130.612
132.27
134.89
120.481
112.732
128.331
128.213
126.87
125.454
132.007
106.027
110.907
109.336
109.934
102.247
115.443
118.957
112.674
112.146
106.378
123.86
117.139
124.196
103.051
111.548
110.071
120.507
116.287
122.405
100.336
101.235
99.1126
98.7595
88.5302
93.4837
87.7455
107.454
105.789
93.4143
98.0484
96.8947
102.418
100.337
82.6541
83.0328
78.5715
82.6985
81.2018
77.7156
80.0982
80.9726
86.0975
93.1069
88.2256
88.108
119.471
116.858
121.315
120.915
113.193
117.227
115.337
129.004
127.749
113.684
118.106
113.669
123.599
122.666
100.074
101.294
92.5287
115.912
111.008
118.864
102.07
103.754
111.347
117.791
115.738
113.963
107.929
119.857
89.0068
96.5358
108.928
102.954
100.392
79.2997
77.7362
83.713
78.7463
80.9168
76.7562
79.8358
128.336
105.921
107.975
100.948
103.604
115.089
91.0099
95.8829
87.6582
83.9512
84.6124
92.2374
76.1525
79.1185
77.4946
74.8869
77.8595
77.245
81.8038
99.6623
89.4698
89.8685
85.7792
98.4103
83.8563
76.3328
104.853
106.259
115.192
91.3754
98.1963
85.6063
110.652
108.56
98.203
76.1627
83.6712
87.3618
93.0309
109.335
103.986
102.251
101.408
110.504
81.4191
91.8476
73.8253
99.9929
101.983
108.549
84.3247
94.3586
89.9599
106.048
104.328
103.438
73.2361
70.1287
78.3183
61.7347
59.3618
58.9661
76.7849
71.3619
74.9932
89.6265
76.3007
72.7908
102.532
79.5131
81.1569
89.9417
83.967
104.781
109.217
68.6843
68.963
66.2239
64.9317
60.8669
69.9553
66.2206
83.4319
104.459
108.984
106.714
104.885
83.2433
80.7408
91.7064
80.483
91.693
87.2709
95.3266
76.5226
76.6726
87.9036
82.6235
79.5372
76.6627
83.0692
83.2825
79.0687
81.5639
77.8661
82.5598
82.1825
83.3246
126.539
117.436
123.595
92.2244
105.38
97.2441
95.9673
100.88
91.4461
88.9944
86.1039
92.8073
79.9399
83.8861
85.3434
80.8343
99.6509
88.6712
98.4304
126.748
127.52
123.141
130.641
113.738
106.747
95.0422
124.446
127.7
110.013
104.813
113.761
108.264
103.969
128.227
119.903
96.1045
106.695
102.559
93.8958
99.5733
101.956
102.637
108.166
121.062
126.173
116.635
114.18
119.001
111.811
113.468
111.519
113.263
106.602
109.437
116.309
114.153
116.039
117.256
116.628
112.083
80.556
80.6627
80.355
77.3866
80.8093
99.3427
95.0242
96.8296
92.0844
85.4511
99.8121
86.1932
92.9173
96.1439
94.8718
84.8044
89.2646
84.4801
113.464
82.9441
93.8154
107.471
108.246
68.0866
82.5232
73.6557
63.5287
67.0227
111.972
111.506
112.103
102.504
93.2649
82.8909
90.0023
102.633
127.263
96.1613
105.629
130.934
126.421
88.1023
101.559
95.5611
87.3625
89.3662
134.051
126.789
135.174
123.928
112.137
98.337
105.731
109.689
99.7244
96.1854
96.5899
90.173
81.8163
105.671
87.3724
95.4324
102.164
98.7826
77.6435
76.6382
76.1194
76.1571
83.0757
89.0765
83.6128
80.895
117.4
121.088
117.325
121.111
130.985
123.484
116.391
122.029
128.011
136.654
109.929
125.767
120.357
110.813
114.529
137.81
124.085
129.243
