# vtk DataFile Version 4.2
vtk output
ASCII
DATASET POLYDATA
POINTS 642 double
-237.917 417.736 50.2783
238.869 420.818 49.8776
-240.473 -361.19 52.7645
243.413 -364.851 52.9669
0.328998 -222.021 459.178
0.26801 260.896 434.225
0.386193 -200.092 -319.671
0.215436 276.917 -342.508
380.101 32.6608 -184.596
376.864 28.4502 290.261
-374.426 32.6151 -181.665
-371.141 28.4315 287.267
-349.741 249.422 182.019
-220.895 165.443 415.874
-129.362 371.346 261.77
130.414 373.46 263.352
0.311626 491.834 49.4765
145.248 413.635 -182.059
-143.568 411.403 -180.697
-228.804 173.079 -319.893
-366.614 259.326 -87.2597
-422.426 31.6198 52.1557
223.089 166.603 418.574
346.438 247.383 182.176
-230.916 -116.642 430.182
0.438729 28.9432 522.053
-358.525 -194.951 -83.343
-363.889 -198.633 199.394
0.379509 32.6978 -409.962
-222.065 -103.425 -310.928
369.579 261.138 -88.8768
230.539 174.025 -321.783
370.611 -202.148 200.846
233.396 -117.578 432.62
148.307 -358.594 295.892
-147.405 -357.159 294.76
0.171754 -428.595 52.9514
-141.543 -341.658 -173.912
143.037 -343.455 -175.096
223.967 -104.46 -312.79
364.229 -199.21 -85.4225
428.809 29.3757 53.7735
-308.069 344.067 120.581
-252.117 324.533 229.514
-191.238 412.831 162.4
-308.871 99.583 363.39
-296.847 211.507 311.498
-369.373 139.84 244.038
-68.8168 327.93 361.325
-183.064 282.561 356.057
-114.654 220.791 440.208
-72.6852 454.397 163.002
-124.313 474.287 49.5737
69.6699 328.437 361.802
0.312282 389.533 275.267
126.015 476.511 49.6904
73.758 455.327 163.009
191.974 415.156 162.435
-76.7229 479.777 -70.7335
-199.66 432.908 -68.2286
202.563 437.224 -69.3283
77.5138 481.024 -71.0655
-74.7449 356.703 -274.62
0.272241 431.63 -193.713
75.4579 357.428 -275.291
-270.023 349.293 -142.385
-316.552 352.781 -21.1415
-120.075 232.366 -346.779
-194.992 303.735 -264.716
-387.168 151.65 -141.559
-313.494 226.092 -214.261
-315.785 104.225 -262.393
-379.756 268.153 50.3544
-410.55 36.7847 -67.3414
-424.821 151.846 -21.0484
-408.221 151.347 119.207
-408.482 28.3836 175.118
250.006 323.227 229.311
309.124 345.351 120.666
115.88 221.556 441.813
184.893 284.142 357.968
374.107 140.953 245.805
300.015 213.144 313.983
312.419 100.176 366.198
-117.934 102.562 489.026
0.403802 152.066 494.052
-315.771 -46.0155 369.546
-236.729 28.5317 440.621
0.0856819 -98.3745 504.393
-120.003 -46.3617 494.804
-123.173 -178.222 463.916
-405.179 -86.7725 126.823
-381.577 -90.8078 251.217
-371.89 -84.9878 -136.522
-409.053 -87.8239 -17.6027
-309.762 -286.379 129.794
-375.502 -206.485 52.3985
-313.685 -290.49 -19.3096
-239.618 32.3257 -336.62
-311.608 -37.9961 -258.408
0.304538 157.779 -394.504
-121.313 107.142 -388.364
-116.042 -160.021 -331.606
-119.8 -41.5383 -382.299
0.217511 -90.323 -384.023
196.752 305.61 -266.685
120.867 233.08 -347.988
317.45 354.135 -22.08
272.156 352.118 -143.896
319.458 104.523 -264.942
315.94 227.799 -216.676
387.814 151.123 -142.766
314.145 -289.713 130.709
276.893 -296.415 256.187
204.721 -377.154 180.742
318.881 -46.555 371.977
321.139 -170.577 330.425
388.384 -92.2907 253.809
78.1428 -305.415 393.791
202.931 -252.697 385.032
124.188 -179.628 465.747
77.6892 -420.422 183.104
127.774 -416.124 52.5103
-77.4976 -304.538 392.871
0.23925 -375.755 306.998
-126.401 -414.277 52.6091
-77.1697 -419.504 182.972
-202.217 -373.848 180.265
77.0689 -410.471 -67.3023
201.834 -371.587 -66.658
-199.612 -368.622 -65.7333
-76.3379 -410.031 -67.1901
74.1302 -284.78 -260.978
0.223537 -357.872 -184.568
-73.3309 -284.456 -260.701
269.466 -287.565 -139.978
318.521 -294.308 -20.2288
116.889 -160.959 -332.636
191.83 -237.961 -254.832
376.168 -84.9018 -137.351
307.944 -162.621 -207.687
315.299 -38.7151 -261.031
381.62 -210.578 52.413
417.457 34.7148 -69.9695
418.726 -89.8126 -18.507
411.912 -88.0725 127.491
416.681 28.7132 177.282
121.109 -46.2487 497.391
239.393 28.8668 444.061
119.22 102.901 491.429
-274.768 -294.392 255.827
-201.26 -250.916 382.896
-317.849 -169.545 328.359
-189.685 -236.081 -252.645
-265.852 -284.447 -137.865
-304.267 -159.959 -205.024
241.759 32.2986 -338.91
120.421 -41.6636 -383.386
121.903 107.288 -389.722
402.723 144.947 120.013
421.918 152.668 -22.0388
381.007 269.121 50.2885
-276.399 383.943 86.257
-253.08 383.17 142.912
-216.483 419.402 107.963
-304.997 291.103 208.287
-283.518 339.675 176.565
-332.679 298.953 152.333
-162.312 398.675 210.223
-225.334 373.998 195.948
-192.128 349.914 246.045
-343.558 64.4644 327.947
-344.179 121.108 306.175
-373.937 85.5265 267.559
-262.858 190.602 366.934
-305.838 157.721 340.307
-267.687 133.474 392.914
-358.498 195.183 212.11
-336.576 177.523 280.002
-323.41 230.209 248.38
-34.9388 297.474 400.592
-92.5951 278.428 404.928
-57.4803 242.945 440.974
-157.776 329.462 315.945
-127.516 308.268 361.706
-100.408 351.248 317.956
-169.507 194.786 431.766
-151.236 254.451 401.072
-204.182 227.298 389.979
-276.325 270.382 274.522
-243.459 250.157 337.49
-219.318 304.146 298.189
-159.944 448.002 107.792
-182.207 449.367 49.7489
-103.49 419.328 211.871
-132.581 437.73 163.841
-63.6216 488.46 49.5765
-98.8463 469.548 108.323
-37.8324 479.165 108.034
35.5542 297.671 400.883
0.25103 332.534 366.164
66.4144 385.769 272.652
34.9891 361.617 324.145
101.598 352.495 318.497
-34.2754 361.243 324.038
-65.1495 384.817 271.865
184.381 453.329 49.6799
161.706 451.285 108.121
217.387 422.2 107.994
38.5764 479.757 108.137
100.172 471.18 108.624
64.4265 489.342 49.623
162.617 399.92 210.769
133.917 440.088 164.171
104.635 420.429 212.477
-35.9193 428.327 218.871
36.4003 427.874 218.698
0.241766 458.35 163.918
-164.414 460.947 -9.95536
-221.005 429.288 -9.04221
-38.8325 493.659 -10.6935
-102.039 483.334 -10.7179
-173.527 426.402 -125.902
-140.056 461.803 -71.2131
-111.895 451.136 -128.037
223.288 433.629 -9.91275
166.802 464.354 -10.2841
113.051 452.859 -128.8
141.806 464.197 -71.8023
175.779 429.465 -127.199
103.237 485.094 -10.8892
39.48 494.37 -10.7856
-37.5835 319.588 -312.369
0.215214 361.177 -279.472
38.0665 319.858 -312.702
-73.5107 427.455 -191.118
-38.1107 398.421 -237.381
-110.358 387.836 -230.508
111.523 389.279 -231.551
38.6538 398.739 -237.588
74.305 428.508 -191.705
0.293427 484.922 -72.2235
39.513 462.767 -135.232
-38.8797 462.049 -134.919
-261.534 396.07 -45.3197
-280.274 389.025 14.2536
-209.153 384.059 -163.506
-237.025 394.106 -106.997
-345.024 308.679 -55.1314
-296.446 354.074 -82.8793
-322.909 307.716 -116.772
-60.7232 256.736 -348.276
-98.429 297.891 -315.336
-213.836 240.315 -295.881
-159.238 270.564 -309.393
-176.541 204.308 -337.422
-136.74 333.664 -273.203
-171.135 361.147 -226.237
-381.744 92.1771 -162.183
-353.488 128.723 -202.8
-348.816 68.2553 -224.345
-344.876 245.173 -153.715
-355.605 190.591 -180.76
-381.822 206.065 -117.039
-275.506 139.491 -294.625
-316.122 166.321 -239.968
-273.244 200.93 -269.766
-235.926 330.672 -206.832
-258.123 267.744 -243.294
-296.104 291.089 -181.993
-316.915 353.181 50.4582
-379.568 267.839 -18.5412
-352.725 312.986 14.5263
-347.776 309.161 86.0864
-369.544 261.922 118.036
-397.381 35.2099 -126.797
-405.125 94.475 -105.082
-428.379 97.7381 12.4655
-422.896 97.7745 -44.3335
-417.364 36.1524 -6.53693
-410.397 153.049 -81.7426
-401.927 206.18 -55.2647
-394.972 85.1265 212.497
-394.729 28.423 232.739
-387.099 201.541 151.963
-388.188 144.943 180.223
-418.388 28.0539 113.715
-405.657 88.2509 148.717
-413.71 93.0413 84.2335
-408.786 211.439 14.171
-423.697 154.254 48.2863
-402.92 209.488 86.0823
253.778 384.864 142.942
277.276 385.757 86.2979
191.937 351.718 247.944
225.279 375.635 195.665
333.189 300.529 150.968
283.977 341.25 175.307
302.734 288.96 207.528
58.2835 243.232 441.623
93.6749 279.118 405.947
206.28 228.817 392.342
152.793 255.679 402.906
171.175 195.857 434.07
128.868 309.411 362.95
159.063 331.058 317.334
379.221 85.86 269.915
348.471 122.022 308.686
348.096 64.5196 330.778
326.048 229.717 251.815
340.496 178.851 282.173
361.985 194.005 217.24
270.499 134.492 395.741
309.325 159.07 342.951
265.652 192.162 369.572
220.644 305.341 300.902
245.932 251.916 339.841
278.286 270.6 278.06
-58.2401 189.105 472.347
0.326161 208.954 467.704
-172.1 135.993 456.886
-117.779 163.582 468.64
0.448021 91.4762 512.547
-59.3565 128.115 496.677
-59.7809 66.571 511.4
-345.345 -9.11889 329.837
-315.381 28.1988 369.524
-236.629 -44.1571 439.568
-277.948 -9.20066 407.45
-276.692 -82.1337 403.017
-275.937 65.1813 405.412
-232.041 98.7121 432.96
-0.0755921 -162.261 484.9
-61.9727 -141.093 488.802
-63.1019 -203.146 467.423
-60.3755 -8.73642 516.007
-60.9993 -72.9935 505
0.426828 -33.9085 519.104
-179.819 -149.41 451.828
-122.962 -113.48 481.93
-177.885 -83.6501 467.177
-179.993 66.1931 470.584
-181.81 -9.14268 473.398
-120.694 29.0851 499.532
-398.805 -29.9396 214.657
-378.411 -31.5397 270.341
-419.561 -27.9778 89.5526
-410.956 -28.3403 151.605
-377.878 -146.976 227.314
-395.596 -90.4387 191.324
-389.446 -143.986 165.526
-375.766 -24.1559 -162.92
-391.47 -24.2594 -102.518
-390.442 -143.411 -51.6176
-394.638 -89.3503 -76.1948
-370.007 -142.49 -110.797
-411.41 -28.5893 -40.7453
-419.43 -29.2471 17.8437
-278.559 -328.173 91.3491
-316.876 -293.938 52.6689
-280.275 -329.478 16.1822
-366.667 -202.235 126.353
-347.423 -249.916 90.5615
-342.755 -247.643 167.216
-339.721 -245.35 -52.6985
-348.959 -251.015 16.6686
-371.931 -203.937 -16.0471
-412.349 -88.3585 52.5872
-399.535 -149.599 16.3619
-395.995 -148.102 90.1281
-318.682 32.3934 -265.071
-346.583 -3.07143 -222.728
-237.809 103.405 -333.64
-280.694 68.9433 -303.364
-269.815 -71.2202 -288.12
-278.891 -3.87136 -301.146
-234.511 -37.5012 -328.558
0.242646 218.312 -371.542
-61.0448 197.329 -376.264
-61.2809 70.4184 -405.612
-61.4979 133.139 -396.189
0.386138 95.46 -407.898
-122.393 170.714 -372.413
-177.783 141.958 -359.696
-59.2991 -181.817 -329.617
-59.201 -126.845 -364.214
0.291547 -145.535 -358.383
-174.015 -74.8138 -351.6
-119.231 -102.086 -361.964
-170.523 -133.574 -325.522
0.287545 -29.9481 -401.238
-60.5276 -66.831 -387.795
-60.8666 -5.25588 -401.325
-183.674 69.9505 -368.38
-122.446 32.3399 -392.049
[...]
POINT_DATA 642
SCALARS Mean_Curvature double 1
LOOKUP_TABLE default
0.00505047
0.00481963
0.00555408
0.00549739
0.00294577
0.00570247
-0.00104675
0.00490645
0.00566715
0.005396
0.00569016
0.00507218
0.00411445
0.00457502
-0.000467017
0.000378656
0.00364424
0.00494466
0.00492323
0.0046578
0.00404474
0.00333621
0.00458624
0.00175046
0.00389885
0.0057247
0.00443002
0.00536326
0.0046812
0.00504183
0.00480717
0.00453433
0.00637073
0.00416951
0.00485554
0.00479349
0.00289042
0.00478759
0.00482799
0.00494998
0.0055035
0.00436328
0.00484087
0.00146902
0.0047192
0.00464499
0.00441439
0.00443113
0.00455957
0.00459038
0.00452049
0.00508645
0.00518987
0.00438102
0.0006727
0.00509981
0.00499756
0.00483723
0.00542999
0.00477666
0.00555431
0.00534465
0.00443883
0.00362574
0.00437982
0.00448721
0.00541621
0.00405392
0.00397738
0.00567829
0.00440187
0.00469878
0.00460205
0.00216602
0.00762401
0.00548605
0.00365872
-0.000812441
0.00500454
0.00455716
0.00471119
0.0043715
0.00465869
0.00446646
0.00446183
0.00470778
0.0052055
0.00434833
0.00332034
0.0033326
0.00525816
0.00127097
0.00525214
0.00237057
0.00432105
-0.0010368
0.00471541
0.00490394
0.00503812
0.00479387
0.00431518
0.00479565
0.00336028
0.00490356
0.00438268
0.00404153
0.00403007
0.00453994
0.00426829
0.00439131
0.00473237
0.00375752
-0.00150789
0.00397931
0.0060396
0.00363782
0.00481701
0.00553249
0.00490049
0.0048195
0.00603905
0.00755448
0.00494287
0.00486585
0.00246937
0.00485407
0.00761577
0.00573666
0.00453407
0.00486826
0.0048559
0.0050511
0.00442251
0.00293862
0.00495127
0.00471425
0.00484034
0.00323051
0.00500787
0.00123158
0.00506104
0.00475597
0.00531766
0.00420264
0.00762563
0.00132607
0.00515646
0.00377556
0.00464615
0.0045821
0.0054937
0.0047109
0.00567416
0.00490709
0.00474577
0.00477642
0.00498979
0.00476155
0.00464557
-0.00120279
0.00596378
0.00498019
0.00475931
0.00485326
0.00434487
0.00319395
0.00536244
0.00496268
0.00492452
0.00591499
-0.00159705
0.00467923
0.00463269
0.00462767
0.00459875
0.00463685
0.00461191
0.000605798
0.0044242
0.00274192
0.00458457
0.00452808
0.00445873
0.00455069
0.0047258
0.00483361
0.00456577
0.00462685
0.00456782
0.00329446
0.00453567
0.00424043
0.00433839
0.00407515
0.00412614
0.00480445
0.00521839
0.00526615
0.00482111
0.00449543
0.00495702
0.000817724
0.00482663
0.00473696
0.00494914
0.000506091
0.00487563
0.00497153
0.00435727
0.0048573
0.00521937
0.00500091
0.00432531
0.00527376
0.00417646
0.00448432
0.00366827
0.00323712
0.00539427
0.00410385
0.00534666
0.00565181
0.00460587
0.00547098
0.00479939
0.00482235
0.00563966
0.00464993
0.00522974
0.00467503
0.00551504
0.00539557
0.00450485
0.00415009
0.00444444
0.00501178
0.00438175
0.00476849
0.00472891
0.00420803
0.00497413
0.0039585
0.00456047
0.00447923
0.00431711
0.00496175
0.00405461
0.00396169
0.00440207
0.0043424
0.0046025
0.00384541
0.00445143
0.0037364
0.00413917
0.00445982
0.00443434
0.00412345
0.00306916
0.00265211
0.00452996
0.0042832
0.00617599
0.00477527
0.00473055
0.00306565
0.00357153
0.00418133
0.00420666
0.00459417
0.00484222
0.00521724
0.00513156
0.00486203
0.00451423
0.00572718
0.00330813
0.0067611
0.005786
-0.00147268
0.00611388
0.00477805
0.00524673
0.00485133
0.00612688
0.000853991
0.00390773
0.00073648
-0.0026043
0.00513845
0.00730547
0.00539321
0.00481895
0.00456748
-0.000945105
0.0058278
0.00601354
0.00607913
0.00079552
0.00432013
0.00451535
0.00464853
0.00469074
0.00459772
0.00474341
0.00460505
0.00454418
0.00458267
0.00446227
0.00355597
0.0045978
0.00344137
0.00456615
0.00466727
0.00464413
0.00468343
0.00472548
0.00426075
0.00455253
0.00476569
0.00449979
0.00443792
0.00493392
0.00456574
0.00479149
0.00271504
0.00429509
0.0044737
0.00299064
0.00431308
0.00461193
0.00459882
0.00329318
0.00409899
0.00595357
0.00573777
0.00331065
0.00523621
0.00554613
0.00349237
0.00378173
0.00446667
0.00394721
0.00479288
0.00427925
0.00338917
0.00417918
0.00282644
0.00663537
0.00250322
0.0047065
0.00529059
-0.00160789
0.00564752
0.00388899
0.00526467
0.0037633
0.00387238
0.00354105
0.00488508
0.00482932
-0.000398577
0.00448795
0.00686822
0.0048564
0.00486297
0.00432026
0.00325111
0.00583943
0.00389104
0.00502696
0.00473417
0.00500594
0.00460505
0.00514783
0.00485455
0.00489758
0.00341497
0.00429388
0.00507083
0.00438615
0.00471457
0.00467901
0.00484418
0.00187045
0.0050406
0.00470179
0.00489316
0.00479526
0.00458496
0.00414777
0.00460502
0.00433701
0.00470003
0.00472606
0.00493883
0.00440909
0.00383199
0.00447408
0.00434105
0.00432397
0.00423666
0.00394264
0.00436285
0.00466105
0.00457036
0.00473029
0.00448381
0.0042543
0.00453884
0.00536509
0.00350065
0.0043696
0.00360318
0.00336654
0.00455309
0.00537075
0.00434141
0.00474913
0.00411534
0.00451649
0.00422227
0.00364858
0.00504296
0.00161839
0.00488617
0.00676972
0.00690761
0.00431239
0.00602858
0.00448491
0.00341968
0.00550979
0.00250328
0.00538843
0.00418388
0.00523476
0.00659654
0.00527275
0.00477603
0.0052984
0.00470996
0.0066114
0.00481497
0.00487105
0.00488626
0.00501326
0.00501846
0.00483276
0.00450067
0.00458292
0.00474738
0.00124978
0.00490866
0.00429302
0.00613636
0.00426775
0.000406786
0.000732334
0.00540224
0.00228487
0.00473723
0.00538902
0.00478814
0.00538066
0.00475977
0.00491749
0.0012521
0.000975479
0.000350704
0.000825708
0.00485349
0.00499286
0.0059619
0.00473099
0.00488023
0.00464945
0.00517694
0.00490435
0.00490735
0.00432529
0.00547145
0.00485739
0.00494522
0.0049456
0.00491759
0.00497072
0.00485184
0.00490338
0.00486074
0.0050865
0.00439719
0.00437148
0.00259353
0.00452409
0.00456379
0.00468616
0.00496657
0.00473547
0.00453155
0.00510187
0.00325317
0.00440667
0.0045928
0.00484739
0.00480419
0.00472045
0.00484541
0.00495201
0.00482311
0.00472145
0.00215773
0.00424223
0.00050533
0.0033372
0.00444728
0.0047246
0.00482548
0.00534651
0.00414128
0.0047142
0.00540967
0.00267668
0.00379964
0.00506318
0.00306732
-0.000389342
0.00476298
0.00512715
0.00477842
0.00489112
0.0052637
0.00507976
0.00463465
-0.00057258
0.00645108
-0.000464672
0.0032664
0.00130477
0.000807147
0.00504232
0.00354733
0.00486291
0.00466347
0.00448109
0.00322453
0.00306604
0.00166055
0.00492635
0.00397229
0.00358583
0.00339373
0.00218029
0.00336718
0.00302827
0.00403434
0.00590455
0.00444601
0.00444657
0.00433497
0.00397638
0.00302973
0.00453976
0.00495182
0.0046783
0.00444624
0.00449327
0.00444071
0.00454591
0.00491963
0.00621562
0.00496323
0.00444906
0.00517493
0.0048452
0.00470431
0.00500596
0.0047804
0.00483982
0.00472839
0.00516346
0.00565295
0.00468498
0.00337322
0.00553941
0.0046052
0.00459851
0.00451558
0.00408015
0.00483274
0.00467932
0.00310899
0.00064276
0.00483871
0.00466984
0.00487586
0.00483286
0.00472968
0.00401708
-0.000169901
0.00299139
0.00345035
0.00453095
0.00475994
0.0046124
0.00486081
0.00496677
0.00482261
0.00477405
0.00508239
0.00468127
0.00494315
0.00454027
0.00458467
0.00468587
0.00483428
0.00433791
0.00474845
0.00456472
0.00464502
0.00554192
0.00482994
0.00464297
0.00482189
0.00500454
0.00187728
0.00307008
0.00467301
0.000254428
0.00343016
0.00514531
0.00561314
0.0051939
0.000194923
0.00482535
0.00575096
0.00505294
0.00501553
0.00473182
0.0069015
0.00575753
0.00654716
SCALARS CoVolArea double 1
LOOKUP_TABLE default
3217.88
3246.57
3316.55
3364.78
3531.24
3071.71
3373.53
3399.57
3086.32
3142.98
3055.15
3072.76
3953.97
3998.05
4217.98
4185.5
4247.82
4404.54
4365.62
4258.66
4174.04
4097.05
4054.34
4060.94
4333.06
4236.45
3974.6
4069.46
4271.6
4156.46
4168.29
4314.65
4159.44
4403.4
4576.15
4528.73
4482.03
4174.33
4215.23
4217.14
4067.82
4075.02
3735.1
4259.69
3690.5
3759.64
4078.54
3755.57
3596.64
4009.36
3808.13
4115.11
3945.3
3624.4
4328.06
3976.09
4142.7
3701.15
4565.11
4079.41
4102.56
4598.53
4162.2
4666.8
4185.97
4485.54
3932.28
4131.54
4546.8
3827.85
4416.19
3945.52
4185.33
3927.82
3903.53
4096.25
3724.86
4405.79
3718.86
3834.75
4022.8
3683.68
4072.63
3838.41
4372.71
3937.05
3947.61
4381.37
4286.72
4595.39
4218.28
4284.98
3779.42
3900.61
4027.99
4141.21
4242.17
3893.7
4348.46
3821.66
4139.66
4480.16
3955.69
4364.82
3916.39
4587.61
4156.68
3999.98
4546.28
3992.17
4472.12
3937.69
4235.49
4642.88
4190.32
4020.34
4561.48
3859.73
4376.08
4749.98
4249.7
4646.23
4185.36
4356.22
4840.89
4146.52
4625.84
4152.3
4492.34
4062.88
4004.98
4466.39
3920.47
4458.21
3895.92
4395.28
3987.69
3977.5
4359.45
4018.4
4348.58
3889.97
4361.69
3876.53
4092.41
4375.46
3712.87
4609.56
4438.26
4403.05
4546.69
4703.54
4455.03
4316.45
4308.43
4294.64
4401.37
4394.75
4504.98
4410.93
4067.04
4120.26
3776.67
3732.8
3797.18
4116.68
3727.77
3642.05
3765.66
3779.77
4361.87
3695.05
3694.7
3555.74
4042.25
3717.37
3726.13
3832.03
3772.91
4155.55
3631.71
3753.02
3721.35
4142.42
3644.84
3705.35
3758.38
3753.27
4053.56
4639.07
4512.02
4658.65
3900.86
3898.71
4150.35
3730.13
3927.05
3881.1
4252.9
3645.29
3635.35
4291.22
3771.63
3708.74
3760.28
4291.03
3905.87
3903.65
3817.2
4266.59
3897.98
3956.64
3777.36
3740.77
4162.94
4699.7
4724.88
4664.05
4061.1
3947.53
4467.06
4070.07
4078.38
4127.66
4529.08
3962.71
4090.04
4574.17
4179.76
4122.66
4115.68
4482.46
4085.17
4234.46
4095.66
4563.36
4247.5
4107.19
4138.94
4261.31
4591.26
5135.01
5181.3
5165.72
4070.92
3864.19
4501.92
4142.32
3898.48
4067.35
4367.9
4088.16
4182.21
4471.46
4168.09
4043.18
4181.8
4513.28
3776.85
3988.63
3806.4
4320.65
3952.05
3819.53
3947.43
4045.02
4426.17
5026.05
5001.6
4937.02
3883.9
4229.97
3893.16
3811.06
4029.16
3723.76
3796.24
4023.09
3695.82
3876.2
3734.59
4177.16
3744.28
3587.76
4008.7
3893.93
3828.65
3985.09
4314.61
4548.83
4394.28
4425.63
3740.26
3829.2
4395.91
3842.66
3682.93
3794.79
4262.49
3739.51
3778.68
4096.26
3783.08
3796.23
3671.3
4138.39
3652.14
3780.32
3766.79
4169.37
3747.84
3786.77
3797.1
3785.75
4096.74
4689.91
4511.86
4692.17
3921.46
3780.21
4240.49
3933.45
3950.33
4001.73
4369.71
3805.73
3913.37
4437.07
4024.42
3994
3910.2
4224.81
4229.92
4301.71
4200.23
4451.28
4270.65
4088.96
4128.7
4266.52
4535.7
4869.56
4997.26
4959.92
3783.39
3736.33
4116.94
3838.22
3697.81
3844.44
4203.9
3740.83
4037.11
3992.82
3843.89
3698.51
3969.24
4113.76
4058.17
4029.64
3896.66
4347.72
4052.51
3966.87
3807.2
3894.91
4091.26
4591.23
4539.91
4747.5
3877.76
3686.16
4347.84
3959.76
3847.12
3891.31
4214.28
4104.57
4188.9
4433.3
4147.08
4038.92
4139.11
4411.3
3972.36
3962.41
3935.06
4226.3
3935.85
3889.57
3975.46
3991.8
4396.66
4924.19
4939.07
4857.75
4208.59
4100.57
4549.29
4215.86
4082.02
4200.82
4513.26
3927.59
4105.21
4415.93
4113.37
3945.62
4175.56
4543.48
3822.79
4037.54
3808.14
4477.27
4105.66
4006.77
3855.14
4036.21
4362.99
5084.5
5006.44
5053.53
4140.08
4236.04
4167.08
4443
4146.83
4034.95
4192.93
4198.6
4693.23
3888.16
4001.55
3834.39
4522.33
4091.81
4050.01
3794.63
4001.39
4406.78
4279.5
4348.62
4214.88
4730.99
4397.99
4310.28
4184.6
4326.18
4609.28
5170.56
5188.73
5259.88
4339.82
4095.79
4634.57
4278.62
4169.26
4356.33
4718.19
4276
4447
4738.98
4429.81
4287.67
4437.09
4756.5
4052.8
4308.62
4127.7
4709.15
4321.37
4141.36
4128.6
4235.9
4590.04
5222.14
5213.05
5176.47
4097.01
3983.51
4476.59
4096.48
3998.46
4099.26
4407.59
3915.06
4052.6
4372.28
4061.64
3949.77
4066.34
4461.53
3937.65
3995.02
3929.84
4378.73
4027.63
3896.46
3866.5
4014.47
4351.71
5030.66
4984.32
5001.03
4080.84
3976.53
4368.37
4077.47
3869.11
4042.21
4271.06
3974.18
3991.45
4473.41
4032.37
3931.48
3954.73
4296.77
3793.25
3964.89
3753.54
4210.65
4002.09
3838.25
3911.75
4033.34
4488.37
4814.97
4886.74
4768.4
4129.69
4212.06
3960.29
4127.91
4448.03
3722.15
4020.46
4150.76
3991.67
3931.6
3917.43
4129.56
3863.62
3674.08
4314.22
3932.79
3779.37
3939.68
4164.18
4677.81
4634.06
4883.18
4348.07
4603.29
4312.89
4289.07
4450.16
3980.88
4286.15
3974.13
4079.86
4517
3937.65
4383.22
4014.14
3961.84
4289.05
5047.37
4911.61
4977.16
4176.53
4619.7
4142.03
4083.43
4338.93
4337.28
4548.83
4294.95
4365.49
4685.83
3925.51
4281.33
3918.2
4029.43
4448.88
5180.87
5103.99
5044.14
3974.91
4248.58
3925.58
4007.19
4424.77
4001.4
4207
3949.97
4006.07
4304.7
3858.45
4426.55
3961.16
3872.61
4140.14
4742.56
4707.84
4833.97
3942.54
4273.01
3953.47
4017.9
4407.2
3976.07
4400.27
4005.92
3969.69
4275.07
4199.03
4461.86
4166.85
4151.56
4431.93
4907.14
4964
4971.99
3681.2
4294.6
3905.42
3897.75
4269.87
3840.47
4163.67
3838.13
3824.92
4190.89
3940.79
4071.7
3785.29
3945.39
4243.19
4606.39
4525.73
4594.91
SCALARS SignedDistance double 1
LOOKUP_TABLE default
267.458
262.776
236.521
222.062
193.347
284.395
293.855
213.805
279.688
282.446
299.762
300.954
339.964
282.055
339.652
333.574
260.451
197.71
208.334
232.826
252.661
335.672
271.426
333.594
229.604
218.43
282.602
284.179
227.09
280.093
248.739
222.981
264.636
217.482
177.411
184.224
234.132
237.974
232.223
271.974
267.942
317.088
300.762
341.731
313.1
288.696
318.031
327.375
314.109
313.739
281.014
308.387
262.319
310.549
333.483
255.366
306.093
309.64
208.066
227.444
215.776
204.366
207.34
201.647
203.892
226.601
249.725
218.278
224.867
289.339
249.171
261.087
289.689
337.341
312.188
350.063
329.576
332.813
297.33
275.09
305.238
311
306.496
275.369
249.619
250.939
268.895
255.794
210.317
225.29
199.707
313.94
298.402
315.973
314.894
270.867
287.469
253.277
245.728
285.233
213.372
217.863
285.523
246.428
258.184
215.529
213.535
245.019
217.33
243.168
240.719
277.495
253.921
208.121
222.098
251.043
224.961
276.732
165.798
180.383
197.378
218.142
219.442
168.957
185.986
223.424
219.407
229.961
221.733
213.994
225.572
221.27
266.558
249.575
266.162
237.817
234.562
282.068
264.983
300.78
284.956
271.184
271.727
319.882
304.103
300.146
309.394
216.435
244.323
242.277
227.317
191.744
246.65
272.245
252.774
294.495
235.163
242.684
213.128
326.629
303.335
287.741
283.176
305.263
289.831
340.85
322.677
319.719
333.596
327.548
340.986
294.376
307.849
313.863
299.762
303.043
284.654
343.294
322.426
338.28
299.525
297.886
282.505
328.508
313.977
327.843
280.873
297.288
297.618
335.796
315.589
332.329
290.286
266.789
330.535
313.839
257.502
286.287
283.167
297.932
311.013
332.639
322.769
322.358
324.536
335.776
259.679
284.397
286.009
284.446
281.846
255.8
329.318
308.791
326.771
326.961
325.536
306.022
242.694
246.213
231.946
234.215
213.976
216.259
201.895
239.378
232.722
193.665
205.629
201.219
228.123
233.553
209.465
204.478
207.95
198.383
202.039
207.04
200.199
202.241
195.313
211.663
199.162
197.132
236.579
256.672
219.277
224.783
246.842
233.856
237.386
215.604
214.299
231.885
222.431
223.731
215.602
217.478
298.902
279.831
278.81
248.829
267.855
266.63
245.377
262.462
246.926
224.727
235.232
234.295
273.782
267.366
268.301
293.782
314.597
320.035
315.966
341.25
326.523
337.415
297.425
275.775
329.22
316.026
343.448
344.476
332.264
338.142
341.589
293.755
329.946
317.854
301.82
279.289
333.582
323.975
316.107
318.616
333.104
280.085
293.467
288.092
289.84
272.141
307.621
320.575
296.533
293.599
278.811
323.97
309.292
325.716
272.651
290.587
288.448
322.084
305.382
323.673
265.955
267.519
265.372
264.721
234.478
249.062
233.805
284.165
277.398
247.401
261.133
247.645
271.678
267.912
213.83
214.945
193.425
218.017
216.029
205.105
214.377
217.846
227.886
251.417
239.215
234.763
316.731
299.797
324.098
321.557
294.416
313.524
310.808
315.55
326.602
301.291
313.483
300.457
328.019
326.171
252.876
259.256
242.728
297.392
279.354
280.748
267.324
269.874
281.48
316.538
302.686
309.52
270.758
291.399
235.872
250.857
281.236
264.681
261.768
216.33
215.093
220.966
214.651
214.031
215.843
221.406
288.943
270.358
276.722
262.078
265.218
282.009
241.098
250.961
235.118
228.006
228.408
243.251
209.883
213.747
207.897
208.386
216.522
214.401
222.035
251.871
231.866
229.469
227.666
244.129
214.556
208.222
259.673
260.087
276.174
235.052
246.959
232.065
261.814
257.328
240.85
215.325
224.647
225.436
236.568
241.816
233.523
234.267
236.23
263.744
193.517
211.757
189.07
265.735
262.199
277.682
219.228
237.8
234.438
272.022
251.777
241.408
179.288
174.537
193.665
173.007
168.59
166.75
206.073
183.505
197.589
213.226
200.202
189.509
229.276
217.478
190.724
216.404
226.685
231.208
241.343
176.428
177.674
177.328
172.081
172.353
175.058
175.454
227.41
235.621
244.265
237.678
232.806
226.487
205.101
220.634
195.37
195.219
192.042
227.287
211.526
213.832
227.51
218.822
220.615
213.996
223.298
227.368
219.891
226.206
219.932
229.469
219.132
225.594
286.871
275.902
284.666
240.983
259.142
247.927
250.204
256.308
240.597
230.344
232.211
235.623
220.525
225.304
231.611
223.561
249.423
233.511
250.15
287.727
283.556
284.058
282.538
276.347
262.817
246.868
296.775
293.194
274.097
274.545
292.809
283.809
270.268
290.825
286.925
249.62
271.661
259.468
240.565
266.54
251.763
260.877
279.429
298.759
309.237
309.362
309.186
316.886
301.247
281.827
295.297
295.687
289.301
292.378
314.552
305
304.258
280.25
303.946
292.427
212.855
221.042
214.272
209.555
211.456
262.633
256.693
259.176
246.448
232.826
263.265
228.807
245.441
258.145
256.107
228.081
241.528
225.756
253.933
201.718
225.605
251.295
255.202
179.431
209.027
191.513
176.615
182.775
280.926
263.385
273.526
256.953
236.685
203.618
215.874
231.606
283.936
254.11
266.845
286.611
290.117
236.694
266.652
250.919
237.425
242.639
309.186
296.224
303.325
305.874
286.881
260.818
272.607
281.038
254.519
252.285
252.002
236.693
224.285
268.645
233.228
249.195
261.383
255.971
213.072
214.737
211.899
210.735
216.937
236.473
224.75
220.815
308.873
321.018
319.343
324.364
332.754
298.121
276.197
288.901
317.921
324.967
269.879
311.741
290.805
264.78
264.962
322.816
294
316.064
