# vtk DataFile Version 4.2
vtk output
ASCII
DATASET POLYDATA
POINTS 642 double
-120.161 231.706 -19.9153
118.314 240.698 -24.9499
-108.821 -205.894 37.8929
129.193 -213.07 38.2069
1.14973 -177.148 291.868
3.99019 81.3623 260.458
2.85231 -58.3451 -87.3367
3.14351 189.726 -174.402
144.861 69.6313 -120.283
146.312 -3.09951 203.52
-118.652 67.2507 -115.78
-120.036 1.80711 204.041
-144.265 147.931 37.5747
-79.4397 48.7618 254.67
-24.4576 127.366 106.395
38.5095 127.08 112.241
0.623422 277.499 -42.5987
81.7228 288.784 -92.9466
-66.8626 281.401 -90.1729
-101.725 113.563 -176.691
-171.708 189.039 -38.1684
-131.426 21.6995 21.1807
91.8657 53.2023 261.331
109.68 114.753 44.3448
-105.405 -100.193 276.783
8.47081 -8.92773 333.687
-130.888 -130.689 -3.60484
-115.997 -136.554 192.88
5.62717 67.3888 -211.645
-80.8052 19.0942 -156.697
161.166 191.456 -51.5347
115.686 115.512 -179.931
142.555 -137.562 198.862
123.726 -101.118 279.53
92.6528 -226.213 238.652
-80.9608 -222.874 237.684
-0.0731113 -219.764 34.1202
-77.0611 -197.538 -43.2303
92.6597 -198.822 -43.8871
93.1011 17.3251 -158.8
149.322 -140.85 -5.34215
149.158 0.542123 59.1904
-140.636 192.63 -8.42869
-106.298 114.749 50.8224
-102.396 217.975 -9.09212
-106.678 25.0554 232.655
-93.8587 53.821 202.511
-105.371 41.9572 175.872
-13.7497 98.2397 221.55
-54.8489 77.4316 225.088
-39.3058 69.005 264.929
-23.3755 240.475 0.37595
-46.7663 274.732 -37.0229
27.6531 101.046 220.632
6.27136 124.131 117.717
64.0536 279.227 -37.6346
37.7428 240.034 1.2366
95.0663 222.605 -10.3236
-41.8179 300.291 -62.9146
-86.4877 259.402 -56.2903
94.6203 283.12 -63.4193
55.9997 301.038 -63.3054
-37.0492 240.66 -143.051
2.01651 285.046 -93.0429
46.3142 243.006 -145.493
-142.862 225.058 -66.5276
-156.189 211.785 -33.6256
-62.754 149.255 -185.537
-92.8758 201.384 -128.927
-150.353 183.939 -56.8273
-141.507 176.885 -87.5416
-119.568 84.8655 -142.228
-172.912 185.848 -13.4563
-115.899 91.2944 -7.45334
-161.256 185.119 -34.7292
-139.155 165.447 43.6601
-121.774 -4.02631 137.503
80.4573 127.519 74.4189
135.83 210.622 -15.0652
53.3079 69.9331 267.664
65.8661 83.0657 228.464
133.139 28.5603 181.429
106.618 56.1068 212.722
122.58 25.3847 237.508
-41.002 30.3701 299.173
5.24883 46.6861 301.129
-114.897 -52.5016 242.726
-93.7546 2.47024 273.551
5.01542 -44.3873 327.597
-44.9067 -33.8197 311.26
-71.4425 -142.788 298.773
-133.808 -50.5258 95.946
-119.376 -72.5468 209.146
-109.125 -53.5292 -45.9085
-133.258 -73.9229 19.0665
-132.803 -150.416 116.55
-132.049 -134.773 28.3925
-125.745 -172.642 9.93261
-101.193 62.5634 -177.288
-108.864 42.9082 -133.183
4.55939 103.279 -216.75
-63.9015 89.3547 -207.06
-61.9961 -24.1888 -145.11
-57.441 36.133 -192.943
2.54448 21.2837 -188.544
103.187 209.011 -137.272
71.007 152.689 -186.061
154.354 220.225 -34.7131
147.655 233.913 -74.053
145.053 82.2217 -145.258
150.48 170.624 -98.4995
155.909 140.843 -75.9264
157.866 -150.671 114.992
134.852 -185.049 217.324
103.284 -210.021 180.957
138.138 -52.5214 245.976
145.275 -128.288 241.11
145.786 -77.4305 208.529
62.4399 -210.194 291.439
116.174 -179.119 278.972
80.7703 -147.944 298.903
60.4743 -226.99 198.36
91.2331 -227.81 38.8768
-54.4975 -208.657 289.33
1.59407 -221.973 236.426
-76.4436 -227.161 39.8592
-54.6815 -225.581 195.414
-86.776 -209.463 175.939
65.5301 -227.468 -10.8536
118.605 -220.612 -10.9137
-101.051 -214.714 -8.47596
-58.3577 -227.277 -10.8384
64.7645 -159.885 -61.2315
0.363909 -190.851 -40.1274
-56.7301 -158.571 -61.5653
133.744 -180.883 -29.8091
145.268 -186.207 7.7086
71.1698 -22.8582 -144.246
91.9695 -149.207 -62.6416
132.56 -40.9367 -45.8975
130.924 -102.232 -41.0656
132.556 44.8192 -134.492
151.321 -140.225 28.5738
125.866 62.3113 -43.5494
149.452 -87.8567 22.16
150.157 -53.1383 100.704
146.883 2.39864 152.057
52.2301 -26.6031 322.522
106.342 0.76749 279.864
51.6729 28.771 304.95
-113.961 -178.09 216.69
-104.276 -174.771 273.921
-118.566 -131.061 239.024
-78.2477 -143.005 -64.1172
-113.902 -172.408 -26.735
-121.439 -93.7362 -39.5909
118.408 63.0911 -179.971
65.0411 34.4624 -194.292
67.0864 88.9599 -210.854
148.666 77.8944 50.5401
158.746 174.614 -31.0906
154.507 191.511 -32.4384
-131.466 214.299 -12.3275
-123.252 208.871 -8.02117
-112.492 225.376 -13.0781
-137.578 135.012 57.8352
-133.39 184.931 -2.65923
-153.49 168.147 6.93187
-69.3564 197.8 8.4294
-111.189 197.203 -2.55814
-60.9575 123.788 79.9022
-114.987 12.8406 217.736
-109.33 28.0416 209.377
-115.256 14.9239 197.186
-89.55 51.1236 231.698
-100.35 41.0947 221.582
-95.4874 36.9165 245.027
-121.875 99.6281 113.036
-99.4985 52.3554 186.623
-114.7 84.333 136.292
-5.06575 91.1262 241.339
-26.3214 83.3708 244.506
-13.8371 76.0869 263.92
-41.0755 92.4363 202.321
-34.428 89.0282 224.567
-20.8518 102.189 202.457
-59.6934 59.931 261.711
-48.8876 73.9859 245.653
-67.5542 64.5747 242.096
-83.4647 74.3549 154.771
-77.5181 65.6441 215.262
-65.6408 80.0423 184.624
-72.4566 240.051 -22.3254
-84.2933 249.927 -34.88
-23.2595 208.319 25.909
-50.5549 229.813 -6.34184
-35.5717 280.553 -37.742
-36.7629 261.251 -23.963
-22.8183 261.098 -19.1888
15.3143 91.8549 240.522
5.76175 100.635 222.454
30.6079 123.095 119.824
17.3911 104.954 204.205
36.0902 104.821 201.418
-3.22976 105.013 204.591
-11.1392 125.111 115.556
82.4076 263.654 -35.684
74.8664 253.766 -25.5195
111.108 235.239 -20.8477
32.0286 260.48 -19.7568
54.8049 263.542 -24.759
49.3818 282.263 -38.6417
63.6238 197.909 22.2949
56.5915 237.851 -5.44258
34.2178 207.275 29.6934
-4.74485 205.901 36.5512
14.5889 204.154 38.2519
1.84299 238.267 9.43406
-63.6382 275.738 -50.3052
-111.413 247.311 -36.1761
-28.0103 294.656 -54.2747
-43.4439 293.363 -55.1537
-75.4914 279.574 -71.3065
-55.0733 294.644 -64.8813
-53.8833 299.708 -71.0826
104.765 260.776 -52.1706
78.2607 287.927 -53.1187
70.7927 303.633 -71.9536
75.1396 298.695 -64.271
90.5866 292.395 -71.5569
61.379 294.535 -54.6801
36.018 293.494 -56.3713
-18.1264 218.663 -161.591
2.90642 243.493 -149.095
24.8074 219.943 -162.92
-43.0594 290.989 -97.0172
-22.9658 265.073 -119.6
-51.4362 263.502 -113.065
65.1043 266.692 -113.972
30.018 265.03 -120.357
54.3081 292.085 -96.9697
2.26632 293.467 -62.7053
34.6446 301.979 -73.0937
-27.1547 304.076 -73.5423
-134.814 236.06 -38.7808
-138.825 224.371 -28.4791
-105.821 252.923 -77.4008
-121.767 246.423 -56.691
-170.257 195.765 -34.1606
-153.174 220.219 -43.3136
-163.926 202.881 -49.809
-33.9041 170.888 -179.506
-48.2962 202.812 -164.394
-96.2775 156.736 -154.032
-73.4102 178.88 -162.814
-85.6365 129.608 -186.148
-62.6023 225.939 -142.246
-78.0866 240.308 -108.186
-122.747 106.481 -93.0194
-124.845 122.828 -99.9374
-120.332 75.707 -128.76
-161.976 185.43 -60.331
-153.998 183.919 -78.4262
-170.353 187.908 -41.525
-112.756 98.6258 -160.837
-121.228 133.609 -112.492
-114.007 139.046 -131.263
-126.366 219.988 -96.7272
-127.418 185.347 -108.698
-149.648 198.753 -78.5704
-149.028 204.675 -19.3254
-175.085 191.189 -30.8277
-171.423 190.129 -25.4516
-160.583 180.134 -8.44923
-161.677 171.342 3.50384
-117.856 73.3293 -92.5998
-136.181 151.96 -39.9785
-157.606 128.924 -25.194
-161.588 142.067 -24.5406
-144.893 57.8963 12.0055
-169.848 187.637 -32.3775
-173.958 191.284 -30.495
-114.342 19.2651 170.327
-120.019 2.32536 188.038
-146.021 149.501 28.7867
-104.686 83.2941 107.467
-128.042 -4.75561 80.2172
-117.633 36.1433 100.623
-137.146 70.3987 8.23737
-180.282 192.16 -27.3165
-174.998 172.442 -37.8265
-171.696 184.614 -13.2254
124.776 215.797 -10.9047
133.872 221.66 -15.7102
58.1503 128.566 97.5824
104.167 194.898 3.69229
133.235 194.149 -11.1198
122.981 199.294 -6.71343
96.098 124.946 53.6032
24.8908 76.477 264.521
39.9156 85.8399 244.812
79.3705 67.8735 248.043
61.9989 76.4101 248.61
72.8992 63.1072 267.063
47.7012 94.1472 224.366
51.8765 99.7633 204.368
142.41 11.6401 193.289
131.145 26.2968 210.033
137.872 8.40718 219.319
107.341 65.9836 167.385
121.177 44.3589 196.717
117.171 57.05 149.643
108.59 41.4274 251.931
114.52 42.334 228.268
101.553 54.443 239.991
74.3985 88.3979 196.249
87.6909 70.5806 222.92
93.1058 77.43 181.755
-15.2063 60.4893 283.333
4.0759 67.8847 281.293
-63.8653 43.5203 276.598
-42.6957 52.8298 282.711
6.92394 18.5905 319.845
-15.5432 36.6884 303.322
-13.1253 11.1371 320.915
-119.404 -20.5988 223.62
-112.858 0.710914 237.308
-97.5432 -46.9747 272.969
-106.406 -22.4174 256.835
-112.552 -78.282 259.671
-101.613 16.8114 253.546
-88.9775 28.0076 264.664
-1.56848 -115.771 296.62
-41.3221 -100.726 300.927
-49.1258 -159.439 299.13
-8.59084 -12.8075 331.031
-16.9192 -36.9855 324.328
8.56218 -18.1401 338.846
-89.9089 -122.92 290.518
-65.2295 -87.465 301.278
-81.3782 -72.2225 293.842
-70.0314 17.5613 288.375
-74.3664 -17.235 294.714
-39.2998 1.98332 312.077
-120.546 -21.7381 173.903
-120.002 -29.7211 205.602
-134.579 -25.0138 72.7714
-131.495 -26.4251 111.073
-118.859 -113.841 201.897
-120.232 -62.3129 159.44
-119.919 -94.1968 146.978
-107.624 32.5683 -100.689
-109.722 -0.201959 -45.9969
-133.493 -106.874 6.87801
-130.424 -77.6872 2.34648
-127.469 -106.758 -12.5212
-127.764 -25.7713 24.0649
-133.459 -24.928 39.8472
-109.302 -189.441 63.9914
-124.103 -172.124 33.4588
-118.366 -191.748 20.0582
-114.696 -148.533 104.688
-122.261 -153.503 56.9931
-108.985 -150.137 164.944
-131.74 -151.375 2.41181
-132.535 -151.717 19.9684
-133.213 -134.106 12.9962
-134.126 -60.0021 44.3889
-133.639 -107.87 20.1934
-131.749 -93.1758 57.6106
-116.465 64.4225 -142.27
-113.383 53.8398 -126.083
-103.005 85.3851 -179.568
-112.276 73.4162 -162.725
-102.423 36.8012 -146.419
-107.853 53.8728 -157.509
-95.2375 43.9117 -169.482
2.95688 139.767 -199.155
-36.0354 126.601 -205.084
-31.4997 77.3061 -212.033
-32.9785 96.9966 -214.236
6.51412 85.7473 -219.627
-66.9688 114.073 -204.916
-86.5809 102.649 -197.606
-66.3201 -34.7646 -118.893
-31.8869 11.1686 -173.736
3.09788 8.47101 -169.856
-72.0256 27.9433 -176.277
-53.0608 17.4305 -174.384
-55.4279 -9.40802 -151.73
2.86728 37.3874 -202.053
-31.9949 26.5933 -193.552
-33.8657 45.0315 -205.272
-87.7222 73.8804 -197.084
-63.4022 59.7196 -205.172
[...]
POINT_DATA 642
SCALARS Mean_Curvature double 1
LOOKUP_TABLE default
0.0368785
0.0448749
0.027316
0.0282105
-0.018491
0.0177212
-0.00941905
0.00118689
0.0299508
0.0286785
0.0135115
0.0274907
-0.873548
0.0172448
0.00241886
0.00726666
-0.0122511
0.0335101
0.0254354
0.0171203
0.106983
-0.0948489
0.0210724
-0.0044677
0.0180823
0.0115355
0.0143223
0.00746146
-0.00310041
0.0064508
0.0180199
0.0141653
0.00934368
0.0165204
0.0179069
0.0200107
-0.00456136
0.0252012
0.0184701
0.00843442
0.00870361
-0.00138673
0.00552071
-0.0301433
0.00370062
0.0174086
0.0290214
-0.00249666
0.0161511
0.00359667
0.0184273
0.0110852
0.015621
0.0215291
-0.00532255
0.0264803
0.0118307
-0.00505692
0.0392675
-0.0496777
0.0532391
0.0427199
0.0137972
-0.00510403
0.0160137
0.0211257
0.0249415
0.00885247
-0.0006156
-0.0281248
-0.0346144
0.0174034
0.176395
-0.0252849
0.17798
-0.0343581
-0.00171885
0.00410572
0.0229797
0.0156058
0.00688834
0.00400545
0.00468814
0.00883802
0.0137789
0.0204663
0.00371368
0.0197065
0.00769661
0.00305476
0.017064
0.0069832
-0.000657255
-0.0239861
0.0114038
0.0505377
0.00599706
0.0133511
0.0246158
0.00299203
0.0116127
0.0109129
-0.13404
0.0169858
0.0121209
0.00709158
0.00430556
0.0518537
0.0297422
0.0303096
0.0195882
0.070114
0.0553134
0.0261445
0.023259
0.00718984
0.0114476
0.000887583
0.0344294
0.0201577
0.0108717
0.00587635
0.0109729
0.0313263
-0.0171045
0.021839
0.00489788
0.0272631
0.0247582
0.0352895
0.0330699
0.0216325
0.0161185
-0.0154353
0.0210084
0.0255702
0.0142818
-0.061584
0.0137148
0.00362561
0.0164036
0.0194382
0.000581524
-0.0142194
-0.0078401
-0.000236552
0.0139724
0.00962801
0.00981669
0.0110288
0.0175381
0.0271903
0.00508929
0.00977866
0.0171443
-0.0728587
0.0225355
0.0171661
0.0108403
0.113083
0.0455477
0.00888892
0.0382102
0.0168417
0.0268506
-0.0340613
-0.0108321
-0.0671346
-0.00679023
-7.84097e-05
-0.00291293
0.0162251
0.00934117
0.00286806
0.017957
0.0174935
0.0198337
0.0860736
-0.0201922
0.133733
0.0150641
0.00728823
0.0091285
0.00736742
0.0105769
0.0152723
0.0171152
0.0121043
0.0129856
-0.0310138
0.0094657
0.0062569
-0.00457789
-0.0108102
0.00144791
-0.00282299
0.0256459
0.000282476
0.00969839
0.008603
0.0160981
-0.00290143
0.001967
0.0169978
0.0114827
0.0048621
0.0104138
-0.00279846
-0.00257403
0.000953628
0.00938983
0.0171224
-0.00263224
-0.000235498
0.00683234
0.0151052
0.00835884
0.0143755
0.0260422
0.057962
0.0435267
0.0201576
0.0480467
0.0190783
0.0649698
-0.037715
0.0198603
0.0598822
0.04145
0.0690165
0.0171247
0.0187643
0.00854415
0.0155541
0.00999201
0.0299599
0.00385904
0.00830954
0.00809949
0.000495758
0.0218581
-0.0431765
0.0463801
0.0571518
0.0327426
0.00710012
0.015368
0.0392767
0.0537719
0.0397633
0.0329901
-0.00109609
0.0169405
0.00768243
0.00921321
0.0189582
0.0157111
-0.00652654
-1.70133e-05
0.00664474
0.0148287
-0.13477
0.0642948
0.217172
0.013936
0.00117426
0.00407013
0.0190374
0.0139921
0.0239443
0.0142743
0.147423
-0.0226787
-0.0401555
0.368865
0.0019633
-0.0233585
0.0408933
-0.0836773
-0.0904829
0.0598105
-0.488709
0.00185132
0.015067
0.146509
-0.0423049
-0.000756642
0.00207695
-0.00202627
0.162522
0.03471
0.0541661
0.0248255
0.0516374
0.00529532
-0.00427344
0.00844711
0.0167388
-0.00467
0.0065113
0.0087903
0.0108576
0.00950045
0.0237541
0.0160072
0.0148172
0.0185171
0.0114546
0.0123049
0.00507735
0.00994719
-0.00141291
0.023071
0.00706088
0.0158353
0.00692487
0.00692388
0.00670218
0.00745151
0.0258278
0.0156269
0.0191995
0.013501
0.00679884
0.0186887
0.0175946
0.014191
0.00361996
0.0107841
0.0169689
0.0160961
0.0179463
-0.00568026
-0.00179319
0.00288611
0.0234988
0.0115655
0.0607114
0.0140072
0.0150735
0.0127942
0.0135438
0.0122569
0.0116512
0.000610496
0.00118734
0.0134855
0.0115389
0.00296995
-0.00310192
-0.000636296
-0.0140026
-0.00297994
0.0200453
0.00703665
0.00179264
-0.0104456
0.0326274
0.00152744
0.0269294
0.0103143
-0.0113039
-0.039586
-0.0675091
0.0296285
0.0243296
0.014113
0.00376214
0.00502029
0.00177412
0.0250576
0.0123151
0.0160086
0.0242904
-0.00242234
0.0196994
0.0166092
0.00165676
0.0104375
0.00537846
0.0195989
0.0334454
0.0246307
0.0285756
-0.0297534
-0.00202163
-0.00119706
0.0175641
0.0105869
-0.109905
0.0151717
0.0219032
0.0185826
0.0308904
0.0250626
0.0247381
0.0102406
-0.000463458
-0.00246163
0.0137115
0.0173674
0.0142759
0.00750584
0.0246255
0.0780652
0.0248214
0.0239868
0.0437586
0.00349103
0.00174539
0.0483944
0.0227524
-0.0228645
-0.000609595
0.00517387
0.0155214
0.0265998
-0.00771748
0.0256128
0.0203338
0.0277587
0.00288649
0.00379618
-0.0153295
-0.000718631
0.0201525
0.0190447
-0.0453592
0.0246753
0.011875
0.031638
0.0227409
0.0113299
0.00364265
0.026414
0.0202225
0.00245532
0.00184533
0.00154769
0.00633318
0.0335459
0.0206489
0.00310579
0.0255355
0.0326056
0.0275464
0.00809357
0.01647
0.0167038
0.0211055
0.0295637
0.0173854
0.0545777
0.0256198
0.0205363
0.021374
0.00924956
-0.0136099
-0.0109902
0.0439895
-0.0110926
0.0234319
0.0239041
0.0292123
0.0172796
0.0210115
0.0207191
0.0654153
-0.0137769
-0.0109359
-0.0016226
0.0114483
0.0273143
0.0332527
0.0262389
0.0439452
0.0504878
-0.0138121
0.0234624
0.0277087
0.0159458
0.00148235
0.0333309
0.0309876
0.0183162
0.0295834
0.0333987
0.0276803
0.0361332
0.0304608
0.00834608
0.0166227
-0.0138358
-0.0188104
-0.0119148
0.0157727
0.0218067
0.00838003
0.0181409
0.0279344
0.0120262
-0.00461095
0.0300101
0.0193
0.0416264
0.0324981
0.0248917
0.0288673
0.00297163
0.0358637
0.0181771
-0.0269204
0.0935766
-0.0412962
0.154297
-0.103773
-0.0221034
0.0318382
0.000951178
-0.0573797
0.0315263
0.0285269
-0.0481626
0.00655094
0.00917416
0.138192
-0.0251392
0.021991
0.00427166
0.0148348
0.0605859
0.0496199
-0.0077463
-0.0598243
-0.0122311
0.00552725
-0.00268926
0.00261353
0.00268188
0.0063185
0.00815992
0.0155293
4.90383e-05
0.0217674
0.00289014
-0.000226423
-0.000570154
-0.00206507
0.0306455
0.0152039
-0.000282202
-0.000256417
-0.00281636
0.0101538
0.00272929
0.0216055
0.0318248
0.00989021
0.0201266
0.014265
0.0100033
0.0150046
0.0040342
0.0168991
0.00611602
0.0190678
0.0200597
0.0116885
0.00956654
0.0221999
-0.0161101
0.0137076
0.015757
0.0203609
0.0191119
0.0255248
0.0143651
0.0219982
0.0225068
0.0302154
0.0120616
0.00264669
-0.000603302
0.0150838
0.0207493
0.0230216
0.0258161
0.0115952
0.110787
0.0258825
-0.0243266
0.189146
-0.0400915
0.0275027
0.0146373
0.0149378
0.0272951
0.0187463
-0.132867
-0.0380498
-0.0599131
-0.158927
-0.00645501
0.0218735
0.0193241
0.00197538
0.0203827
0.0159858
0.0148411
0.0287032
0.0226252
0.000743578
0.0140558
0.0190122
0.0156011
0.0180036
0.00855515
0.0244032
0.014549
0.0283095
0.0152681
0.021613
0.0159605
0.0255762
0.00803117
-0.021654
0.0101838
0.0011459
-0.0240106
0.0189322
0.0435882
-0.012803
-0.011648
-0.0377719
0.0365865
-0.00268841
0.00737873
0.0194373
0.0445141
0.267637
-0.174658
0.0413499
SCALARS CoVolArea double 1
LOOKUP_TABLE default
388.806
485.453
697.497
730.35
1600.01
403.418
5669.89
1452.2
197.141
405.613
550.044
358.727
180.677
518.538
3248.24
1867.78
1189.4
922.398
997.815
980.888
114.943
1384.07
507.915
2392.1
1093.78
411.591
468.914
1472.93
1004.46
2634.76
261.64
1150.63
1431.16
1274.29
988.484
853.915
3668.03
525.832
596.082
2687.82
620.294
1945.87
361.462
3761.23
819.265
432.126
855.254
1190.21
439.311
681.902
570.426
890.159
607.242
467.458
2081.92
415.667
982.994
1142.77
279.698
674.724
401.622
345.378
1168.02
1574.19
1292.46
924.963
315.246
1232.89
1787.97
1212.94
737.727
754.375
97.0547
4904.32
321.433
4825.52
1573.28
2455.99
181.001
619.365
600.068
801.456
759.814
607.259
851.734
687.498
870.821
938.256
1939.02
1417.34
1049.34
2044.65
1339.68
2067.44
742.337
2563.95
1207.12
455.748
479.77
436.236
1131.9
753.061
796.103
623.644
812.813
1683.64
1376.59
331.441
924.266
581.848
1068.53
564.579
2704.33
594.256
1077.47
1078.55
557.562
1069.11
1069.21
1035.06
1331.87
2161.22
1312.19
1057.95
1605.61
1005.44
1745.72
961.545
972.582
526.208
471.967
825.274
1396.46
1285.48
1052.63
526.889
379.922
824.219
872.632
1696.84
1092.45
648.312
1637.15
3995.24
868.554
2542.35
989.654
1267.24
1038.61
832.09
618.993
847.3
500.739
943.979
593.607
1095.92
559.043
740.668
787.94
1345.67
930.646
265.375
323.214
306.354
439.943
1906.87
1309.94
481.633
3114.31
2266.99
4544.14
433.639
497.285
427.914
501.849
434.422
419.07
1031.6
612.191
908.121
466.541
538.267
527.717
2024.96
517.203
1087.68
486.651
483.004
525.897
2213.93
861.47
2420.05
886.234
741.072
2240.25
1308.25
509.719
665.286
1016.85
527.201
408.768
1777.18
1112.06
838.631
1023.98
1738.17
646.043
714.949
523.57
1228.93
570.692
699.386
2499.47
1129.43
1721.39
1548.29
1805.14
1263.31
640.399
609.56
590.891
312.099
669.202
341.71
441.533
713.765
477.068
497.255
232.324
476.584
332.712
685.242
1297.7
1400.24
1353.77
1001.43
1441.72
1097.56
1139.65
1576.93
1157.62
567.963
979.882
896.935
472.176
401.753
1300.33
778.156
186.808
471.358
493.053
1625.8
1231.05
1605.45
1391.47
979.77
1369.29
1664.13
1320.21
1095.56
557.66
302.151
642.27
139.882
871.017
1008.59
1354.19
1534.31
1475.16
824.73
440.162
51.4182
258.769
338.052
150.336
3184.41
2534.08
767.812
1377.58
1749.69
552.349
21.37
1625.13
695.507
1118.78
2775.7
2194.04
4568.82
4700.86
157.508
2157.37
563.171
410.244
256.532
2818.96
1857.45
897.385
967.756
2185.07
633.858
602.699
505.124
471.757
463.053
471.268
1356.66
402.75
580.617
585.639
1738.26
795.543
1989.06
488.847
527.13
510.593
1894.59
772.656
1874.26
655.004
552.67
687.758
669.626
672.666
751.658
714.725
725.025
719.383
1274.93
938.353
876.754
586.057
615.823
3128.2
2029.59
1568.32
689.827
1231.47
409.65
1003.09
1456.58
1447.96
997.957
1462.01
1134.69
1563.14
811.137
1249.19
1457.52
1318.74
2132.7
3149.42
1641.73
4534.49
478.058
1823.49
948.491
3043.61
1123.75
1867.29
1078.34
594.37
2586.43
1000.08
1066.89
386.791
493.108
355.85
1306.82
782.786
2842.35
372.221
505.506
582.932
455.914
894.402
405.789
549.017
1876.46
1413.35
907.772
858.306
662.599
870.492
671.025
3697.67
1155.47
3550.31
665.66
637.168
921.528
913.176
698.887
927.538
664.534
802.459
606.379
1344.69
1707.86
1504.49
1318.35
1092.09
1339.7
1633.22
457.608
545.796
473.85
565.41
259.527
660.442
1216
263.871
746.281
259.782
1649.84
1123.73
918.901
396.041
879.802
489.693
1584.59
911.266
1689.5
1964.42
2392.38
1158.18
599.202
1388.63
1461.18
736.946
765.841
850.061
815.807
861.399
738.858
827.414
731.292
1004.54
1007.87
617.498
510.228
1057.16
786.342
1825.76
1091.07
872.5
1005.13
1306.98
860.793
1016.61
678.287
964.896
1064.89
1321.64
923.03
796.009
1146.9
2566.9
2491
5662.63
1050.19
1490.97
1087.95
1554.46
917.128
1597.42
1206.37
929.154
1128.2
1108.21
4991.43
1661.83
1998.71
728.921
871.094
697.996
996.775
957.125
3487.18
614.748
554.675
1404.36
831.932
516.651
573.139
736.747
499.762
545.582
597.032
477.09
477.333
658.518
1321.27
4042.08
2100.79
3751.12
950.163
1204.11
651.181
510.796
1092.02
799.024
1404.53
1278.47
1376.29
473.501
562.009
567.97
517.496
445.888
401.647
516.495
3832.49
1489.47
3968.66
538.111
915.221
510.969
514.297
769.965
871.346
424.682
797.672
1056.08
1316.8
1214.44
767.304
4363.31
640.369
2735.78
701.769
812.872
495.858
644.413
1475.52
3141.93
1532.19
2831.2
1353.09
2982.91
3855.37
1679
523.042
1374.71
460.94
3205.78
2099.01
1447.41
1771.62
1113.99
696.934
1238.91
3154.71
2476.08
1734.83
1819.9
1216.38
474.4
886.863
745.616
748.399
1049.39
1381.72
740.241
649.298
769.957
686.667
715.983
1437.55
1041.26
927.086
2081.71
803.218
823.347
1317.18
605.248
791.148
864.764
804.438
867.282
911.876
766.607
548.414
684.375
659.816
753.161
803.711
703.093
528.972
1166.87
554.852
425.603
533.087
3943.35
454.351
546.796
470.58
495.404
586.672
904.086
4220.66
584.07
705.91
588.696
714.872
697.142
2748.05
404.288
637.128
513.056
456.586
670.299
1208.11
937.318
763.187
692.849
731.426
1465.09
857.614
1000.58
770.079
761.842
758.649
894.216
812.503
629.787
1603.6
1487.53
1854.06
2731.93
1558.84
165.802
632.493
3698.5
3372.67
192.948
1296.37
231.862
164.483
175.734
422.91
115.166
913.981
SCALARS SignedDistance double 1
LOOKUP_TABLE default
29.3214
30.2658
22.3387
19.8287
27.1279
27.7644
30.8362
19.7718
31.2868
27.9743
31.3983
30.0409
97.7058
25.8116
33.7893
35.1427
31.2089
14.2366
20.4611
23.5298
52.1087
41.3736
25.0767
47.3684
20.9755
21.5065
27.1727
31.0082
22.5007
28.9781
28.724
20.3162
29.2417
20.2284
18.54
17.7146
32.5021
22.8394
23.9023
29.7951
26.043
30.7867
47.2951
62.1924
37.7846
28.5689
31.604
33.8481
29.027
30.371
26.6204
30.4479
29.168
29.9792
34.5438
27.5548
30.2999
33.2291
24.0477
30.6785
24.8093
24.0057
18.3229
24.3879
16.9291
19.496
31.2604
20.3437
24.2496
31.5486
33.0455
29.5316
66.3397
56.3943
46.1163
96.2175
31.7794
36.9395
32.8525
26.6348
28.9344
30.4761
29.024
27.9984
22.0895
23.0063
26.5167
22.3329
22.6692
23.582
19.9353
29.6737
29.38
35.6838
30.2943
61.9375
29.2013
24.7025
24.2372
32.5502
18.584
21.8685
60.4451
24.0217
25.5097
19.8234
20.3985
28.5366
19.3725
26.7636
33.8665
48.4961
61.1371
26.2622
34.2142
23.9084
26.9294
27.4625
14.2632
16.7209
20.0739
25.8967
20.8988
12.7991
29.0224
20.2201
26.602
38.3983
20.5285
16.6702
18.2198
20.3392
32.0141
38.7215
32.3629
22.4399
26.8889
57.7748
33.3805
34.863
28.1223
31.4037
27.8335
41.0203
31.2116
30.0121
28.5791
21.549
22.3656
23.4176
25.8701
18.2872
28.5439
34.7833
23.4495
39.0952
21.8671
23.7466
21.041
55.4362
37.9756
30.1264
34.7194
39.4173
33.8183
98.4418
49.6985
74.4984
36.2542
43.6866
38.264
29.9432
30.8495
31.2452
28.7828
29.6832
26.0517
70.8673
35.0881
61.9124
28.5567
28.8365
26.7751
32.1186
29.0309
31.1439
26.1704
29.0266
29.6676
36.0015
30.5401
34.2479
31.6008
29.9888
32.9564
33.4171
27.9795
30.965
31.0447
28.9338
29.5677
34.3793
34.0582
33.8842
34.0987
34.6302
31.3412
31.6079
30.5735
29.8547
31.1256
28.0669
33.2821
31.0717
32.679
33.4959
33.9708
28.6975
28.753
27.085
24.2625
23.9047
28.2831
22.3737
21.772
31.1055
23.5814
21.9563
22.1949
21.6914
23.8697
29.8237
19.8226
16.8236
20.2803
16.4068
22.365
20.3647
21.9827
22.2336
17.2499
32.9488
29.2649
21.562
23.2823
26.1235
26.5554
21.1205
49.2933
24.9466
35.8148
21.2096
20.7808
23.5475
19.5896
19.9058
18.7423
22.9693
33.7285
38.417
30.3468
40.6451
36.8261
49.7614
23.8429
38.9765
34.4166
18.2558
31.7296
29.7541
39.2643
57.8436
56.6219
62.9721
76.7056
35.442
44.1797
77.5556
74.5334
67.2649
52.8838
55.9749
32.2058
30.0266
92.7832
45.9818
33.3646
31.4476
68.1749
62.3705
61.6334
67.7111
35.754
31.1305
32.6929
36.1986
34.4907
37.0039
44.7895
26.4483
27.5907
28.1722
28.6791
25.1596
27.71
29.8598
28.567
27.5379
26.2589
32.1372
29.0293
31.3916
25.201
28.6068
27.3798
31.7904
29.6752
32.7529
25.0555
25.1785
23.9537
23.3743
22.1232
23.6886
21.239
29.373
26.9365
23.7851
25.6263
25.3975
25.8842
24.0816
22.3688
22.1054
20.3231
22.1316
22.0575
21.5486
18.8991
22.4736
21.3663
22.2756
21.5481
22.8877
30.5829
30.0256
30.7566
31.8766
28.8455
30.2338
29.9258
41.9114
42.5902
29.3473
30.7384
28.1412
33.7408
33.9187
28.8636
26.2532
26.0052
45.4701
31.8396
40.0551
27.5154
28.343
29.0698
30.014
29.5108
28.5464
30.5337
32.2564
23.2982
24.3167
30.3161
27.0253
24.1433
19.704
19.5662
22.3424
21.4319
21.0442
19.666
19.1608
67.4246
31.514
29.7902
26.6619
29.7494
46.2594
22.0909
24.3397
20.085
19.59
19.9553
21.9371
20.2562
22.4762
21.9402
17.6836
18.3718
19.0353
20.1424
25.4022
21.5744
27.5847
20.8205
28.8283
31.2852
27.2448
29.7086
30.8705
30.3195
26.6246
32.5641
21.2307
30.9869
36.7675
28.2207
17.4164
23.6719
28.4392
26.016
48.8741
50.4773
26.4316
28.146
38.0012
21.3256
25.7049
22.0955
26.9242
27.0498
28.1394
23.3505
26.2846
23.3536
27.0602
26.8829
26.7541
23.3432
20.3109
20.3484
13.5714
13.4869
16.677
19.5042
18.0745
17.6795
26.2005
22.8997
19.5821
55.3046
19.4592
23.2706
29.0932
21.5318
55.4959
32.8964
19.316
25.9604
15.9933
17.0196
14.5798
22.542
17.9855
20.3067
56.9098
52.1787
47.7218
59.7652
21.3792
20.1811
33.2776
23.334
31.3405
25.0471
32.5629
20.8005
17.4747
27.8562
21.0622
18.3178
19.6972
19.784
20.1994
18.444
19.5984
18.882
18.4655
21.3149
21.2054
37.0227
41.2841
36.7422
24.9459
35.073
24.9222
25.0922
29.2648
24.3371
32.2527
20.9262
29.9023
21.4784
24.6957
21.2562
18.7166
27.0668
25.2888
24.6646
59.8256
61.1654
66.6674
63.3362
43.564
34.5263
26.9532
39.0637
50.1093
31.8404
25.6568
38.4144
28.3371
28.4596
58.166
46.3023
24.9322
26.734
25.056
26.5959
24.516
27.0283
31.1144
45.0355
31.7511
50.9369
31.059
29.8839
31.9947
29.9962
32.5995
28.3699
28.5602
27.4583
27.89
30.7753
29.4255
32.8306
33.6827
31.452
29.7156
21.6363
19.3021
21.8946
19.4163
21.3073
25.1535
22.1876
25.3036
23.4539
20.485
24.892
21.0802
23.8877
23.7788
22.1278
21.7926
22.9695
20.3975
49.9587
22.338
28.4794
30.8906
28.8859
19.786
20.296
18.3198
15.3985
18.0906
29.6346
28.5263
28.6943
28.8115
27.0965
23.4475
27.4757
28.4676
60.9937
26.5036
35.6271
65.2552
72.5629
25.2607
27.1325
24.0939
21.0792
21.4557
63.1833
55.1338
61.8551
47.9381
28.6047
24.1706
26.616
27.5817
26.0189
23.2289
24.1294
23.3122
20.0871
29.6886
21.5462
24.3443
29.0403
25.8959
19.6036
18.4205
20.0853
19.8134
22.2447
21.4853
21.7312
18.9591
28.9779
40.4096
29.6403
29.8837
45.4165
44.7925
31.871
32.0422
37.281
65.6769
30.4854
34.2275
31.1578
29.69
30.1855
60.592
39.9445
53.3721
