# vtk DataFile Version 4.2
vtk output
ASCII
DATASET POLYDATA
POINTS 642 double
-241.958 423.979 50.8931
242.923 426.823 50.5591
-244.319 -366.931 52.9418
246.976 -370.321 53.1142
0.2763 -224.637 464.072
0.224176 265.78 440.821
0.324719 -204.586 -326.947
0.180439 280.126 -348.007
387.05 32.3232 -188.29
384.044 28.8191 294.126
-381.861 32.288 -185.536
-378.789 28.7798 291.332
-357.143 253.644 185.721
-225.211 168.415 422.112
-132.54 379.302 267.035
133.472 381.254 268.46
0.262461 498.833 50.2493
147.197 418.303 -185.054
-145.721 416.246 -183.797
-232.482 175.197 -325.246
-372.693 262.793 -89.4012
-432.234 31.5356 52.4018
227.197 169.477 424.617
354.294 251.811 185.797
-234.512 -118.095 435.553
0.363515 29.2566 528.356
-365.374 -198.493 -85.9052
-370.651 -201.979 200.871
0.317171 32.3677 -416.593
-226.33 -106.55 -316.923
375.446 264.433 -90.8385
234.039 176.058 -327.003
376.841 -205.276 202.278
236.705 -118.959 437.801
150.004 -362.857 298.31
-149.2 -361.519 297.27
0.148016 -435.528 53.1247
-143.743 -347.109 -177.673
145.055 -348.789 -178.772
228.031 -107.49 -318.665
370.672 -202.369 -87.8507
438.202 29.6846 53.7503
-313.832 349.63 122.711
-257.488 331.128 234.453
-194.933 419.937 165.68
-315.005 101.294 368.755
-303.267 215.852 316.308
-377.621 142.657 247.48
-70.3993 334.767 367.129
-187.086 288.382 361.684
-116.941 224.835 446.861
-73.9909 462.122 166.462
-126.488 480.973 50.3201
71.1222 335.235 367.577
0.255814 397.925 280.524
127.968 483.042 50.4204
74.9058 463.005 166.5
195.664 422.096 165.781
-77.7086 485.389 -72.1618
-202.844 438.399 -69.7092
205.463 442.356 -70.7299
78.3863 486.54 -72.4702
-75.8327 360.882 -279.056
0.228799 436.702 -196.912
76.4425 361.552 -279.68
-274.181 353.801 -145.217
-321.632 357.641 -22.0125
-121.874 235.178 -352.391
-198.089 307.493 -269.295
-394.146 152.982 -144.909
-318.531 228.899 -218.489
-321.404 105.306 -267.25
-386.675 272.057 50.9651
-420.095 35.8364 -69.3392
-432.752 153.282 -21.9892
-417.909 152.695 121.614
-418.005 28.7649 177.002
255.622 329.862 234.164
314.822 350.81 122.821
118.009 225.55 448.351
188.731 289.86 363.458
381.97 143.739 249.137
306.185 217.401 318.592
318.24 101.848 371.369
-120.148 104.159 495.746
0.337247 154.607 500.858
-321.487 -46.5951 374.578
-240.952 28.885 446.768
0.0725477 -99.9361 510.389
-122.028 -47.1814 501.083
-124.755 -180.276 468.95
-414.351 -88.4875 127.928
-389.251 -92.0714 254.126
-380.015 -86.8297 -140.051
-418.026 -89.3753 -18.9273
-315.477 -291.543 130.48
-382.857 -210.212 52.657
-319.086 -295.306 -20.4602
-243.579 32.059 -342.479
-317.549 -39.778 -263.567
0.254577 159.578 -400.642
-123.145 108.083 -394.52
-118.1 -163.918 -338.377
-121.742 -43.081 -388.944
0.182514 -92.8551 -390.99
199.678 309.219 -271.122
122.569 235.831 -353.516
322.498 358.893 -22.8312
276.165 356.396 -146.628
324.713 105.612 -269.621
320.82 230.464 -220.696
394.706 152.621 -145.957
319.406 -294.608 131.32
280.618 -300.298 258.531
207.447 -382.423 181.68
324.302 -47.0945 376.832
325.726 -172.883 333.952
395.489 -93.4614 256.587
78.8817 -308.832 397.295
205.407 -255.649 388.633
125.67 -181.575 470.735
78.5821 -426.186 183.936
129.422 -422.426 52.7303
-78.3254 -308.02 396.446
0.202577 -380.486 309.655
-128.221 -420.691 52.8119
-78.1362 -425.337 183.806
-205.187 -379.318 181.21
77.8905 -416.742 -69.1391
204.663 -377.039 -68.4118
-202.671 -374.29 -67.5575
-77.2672 -416.297 -69.0225
75.094 -289.715 -266.7
0.192497 -363.861 -188.606
-74.4156 -289.396 -266.415
273.666 -292.032 -143.167
323.477 -298.859 -21.3103
118.838 -164.757 -339.342
195.091 -241.915 -260.446
383.964 -86.8485 -140.884
313.519 -165.51 -212.656
320.897 -40.4418 -266.018
388.537 -213.98 52.6663
426.629 34.071 -71.7153
427.088 -91.3092 -19.8017
420.673 -89.7406 128.528
425.557 29.0541 178.991
123.017 -47.1269 503.454
243.372 29.1792 449.961
121.283 104.481 497.969
-278.732 -298.462 258.123
-203.898 -254.008 386.667
-322.801 -171.889 332.079
-193.164 -240.165 -258.402
-270.396 -289.131 -141.217
-310.05 -163.031 -210.082
245.496 32.0361 -344.609
122.287 -43.2009 -389.956
123.672 108.224 -395.771
411.885 147.07 122.08
430.08 153.93 -22.7716
387.865 272.918 50.9233
-281.274 389.943 87.5916
-257.841 389.587 145.602
-220.416 426.122 109.812
-311.433 296.499 212.581
-289.142 345.551 180.31
-339.295 303.898 155.336
-165.722 405.951 215.265
-229.813 380.646 200.474
-196.475 357.454 251.404
-350.501 65.4801 332.709
-351.431 123.4 310.697
-381.965 87.0708 271.355
-268.243 194.306 372.569
-312.201 160.729 345.449
-272.943 135.84 398.773
-366.601 198.63 215.866
-343.987 181.106 284.186
-330.637 234.71 252.561
-35.7455 303.35 406.899
-94.5738 283.875 411.278
-58.7 247.448 447.666
-161.455 336.755 320.896
-130.328 314.653 367.493
-102.808 359.036 322.971
-172.832 198.315 438.268
-154.361 259.392 407.329
-208.427 231.68 396.003
-282.443 275.989 279.147
-248.725 255.289 342.793
-224.19 310.794 303.017
-162.966 455.079 109.736
-185.461 455.934 50.456
-105.698 427.052 216.834
-135.235 445.239 167.273
-64.5911 495.296 50.328
-100.665 476.802 110.325
-38.3993 486.605 110.095
36.2621 303.535 407.168
0.208704 339.408 372.003
67.8912 393.986 277.835
35.7237 369.511 329.275
103.832 360.17 323.501
-35.1294 369.176 329.166
-66.8203 393.095 277.124
187.457 459.609 50.4045
164.57 458.13 110.065
221.319 428.712 109.882
39.0299 487.182 110.197
101.805 478.327 110.605
65.2735 496.129 50.3701
166.034 407.134 215.756
136.433 447.435 167.621
106.695 428.103 217.388
-36.6454 436.292 223.766
37.045 435.864 223.593
0.206624 466.294 167.461
-167.151 467.006 -10.3515
-224.663 435.216 -9.50846
-39.3353 499.932 -11.1115
-103.608 489.478 -11.116
-176.205 431.574 -128.263
-142.153 467.317 -72.6485
-113.457 456.409 -130.353
226.826 439.249 -10.2909
169.269 470.154 -10.6656
114.46 458.001 -131.057
143.677 469.523 -73.2013
178.205 434.394 -129.469
104.64 491.107 -11.2811
39.8811 500.59 -11.1963
-38.1508 323.317 -317.354
0.180696 365.402 -283.915
38.5579 323.565 -317.661
-74.4907 432.395 -194.236
-38.6191 403.059 -241.224
-111.977 392.356 -234.319
112.986 393.687 -235.291
39.0779 403.361 -241.425
75.1711 433.372 -194.787
0.245654 490.686 -73.6898
39.9102 468.091 -137.566
-39.3747 467.427 -137.277
-265.659 401.423 -46.5635
-284.843 394.619 14.1215
-212.403 388.839 -166.569
-240.748 399.202 -109.194
-350.635 312.843 -56.6788
-301.093 358.824 -84.7998
-328.056 311.744 -119.296
-61.6245 259.774 -353.908
-99.9283 301.41 -320.453
-217.315 243.341 -300.96
-161.731 273.876 -314.542
-179.268 206.814 -342.927
-138.847 337.644 -277.746
-173.829 365.535 -230.136
-389.117 92.7166 -165.874
-359.967 129.951 -207.136
-355.369 68.6911 -228.791
-350.461 248.392 -156.89
-361.471 192.719 -184.556
-388.082 208.603 -119.63
-280.16 141.126 -299.767
-321.651 168.264 -244.683
-277.802 203.481 -274.695
-239.569 334.838 -210.619
-262.208 271.104 -247.761
-300.739 294.809 -185.529
-322.39 358.448 51.0502
-385.999 271.48 -19.4265
-358.728 317.447 14.364
-354.178 313.919 87.4416
-376.784 266.02 120.18
-405.96 34.4948 -129.592
-413.465 94.6119 -107.936
-437.711 97.5008 12.5799
-431.62 97.488 -45.9919
-427.099 35.364 -7.57213
-417.871 154.435 -84.0774
-408.571 208.801 -56.8222
-403.917 86.6899 215.072
-403.308 28.7729 235.696
-395.051 204.4 154.978
-397.311 147.18 183.317
-428.14 28.4725 114.875
-415.418 89.403 150.535
-423.504 93.4184 85.7465
-415.959 214.254 14.0219
-432.365 155.523 49.2641
-410.614 212.372 87.5047
258.52 391.144 145.673
282.115 391.612 87.639
196.361 359.023 253.008
229.83 382.119 200.24
339.824 305.273 154.241
289.606 346.943 179.285
309.427 294.576 211.877
59.38 247.723 448.27
95.5021 284.522 412.229
210.321 233.085 398.199
155.738 260.534 409.035
174.322 199.303 440.406
131.51 315.719 368.656
162.608 338.225 322.193
386.81 87.415 273.567
355.362 124.257 313.04
354.649 65.5657 335.354
333.135 234.481 255.58
347.6 182.386 286.191
369.957 197.879 220.294
275.502 136.769 401.397
315.389 161.973 347.906
270.789 195.742 375.019
225.45 311.945 305.454
250.987 256.941 344.962
284.311 276.349 282.272
-59.4304 192.393 479.19
0.273132 212.636 474.503
-175.353 138.242 463.489
-120.025 166.389 475.417
0.372709 92.9234 519.173
-60.5278 130.227 503.47
-60.9562 67.5359 517.993
-352.219 -9.18771 334.455
-321.424 28.5975 374.821
-240.611 -44.7621 445.469
-283.002 -9.30076 413.169
-281.293 -83.1671 408.238
-281.142 66.1437 411.246
-236.333 100.313 439.236
-0.05926 -164.324 490.739
-62.7911 -142.836 494.66
-63.7636 -205.451 472.264
-61.5093 -9.10612 522.226
-62.0154 -74.2475 511.147
0.354071 -34.762 525.162
-182.391 -151.185 457.087
-124.755 -114.883 487.887
-180.647 -84.6888 473.103
-183.234 67.1438 477.09
-184.883 -9.38775 479.707
-122.874 29.368 506
-407.614 -30.5979 217.075
-386.249 -31.9607 273.977
-429.11 -28.8895 90.274
-420.3 -29.2122 153.132
-385.293 -149.289 229.587
-404.493 -91.9416 193.064
-398.009 -146.657 166.688
-383.738 -25.6901 -166.327
-400.604 -25.6254 -105.298
-398.406 -146.006 -53.6421
-403.249 -90.8091 -78.9646
-377.526 -145.062 -114.09
-420.774 -29.3994 -42.7575
-429.018 -29.9859 17.1756
-283.364 -333.564 91.8902
-322.43 -298.892 52.8762
-284.903 -334.798 15.7081
-374.313 -205.898 127.151
-353.942 -254.345 91.1933
-348.905 -251.845 168.146
-345.903 -249.561 -54.5556
-355.364 -255.367 16.1544
-379.079 -207.611 -17.2627
-421.55 -90.0742 52.8023
-407.698 -152.277 15.8787
-404.564 -150.953 90.9114
-324.482 32.1142 -270.114
-353.324 -4.11112 -227.291
-241.625 104.372 -339.277
-285.528 69.3365 -308.758
-274.921 -73.78 -293.742
-283.876 -4.85029 -306.719
-238.601 -39.127 -334.586
0.203472 220.925 -377.477
-61.9227 199.666 -382.21
-62.2287 70.7458 -412.03
-62.4036 134.562 -402.394
0.321638 96.2667 -414.222
-124.178 172.685 -378.305
-180.518 143.471 -365.486
-60.1792 -186.1 -336.642
-60.2248 -130.241 -371.075
0.243573 -149.448 -365.278
-177.071 -77.0837 -358.029
-121.278 -104.934 -368.669
-173.756 -137.101 -331.919
0.242148 -31.3472 -408.111
-61.4938 -68.8899 -394.662
-61.8288 -6.16729 -408.075
-186.532 70.3198 -374.452
-124.342 32.0728 -398.481
[...]
POINT_DATA 642
SCALARS Mean_Curvature double 1
LOOKUP_TABLE default
0.00494253
0.004759
0.00543052
0.00537089
0.00305864
0.0055299
-0.000535811
0.00484224
0.00551007
0.00525064
0.00548996
0.00493634
0.00415476
0.00447213
-0.000212489
0.000539431
0.00365555
0.00479689
0.00478521
0.00454756
0.0040566
0.00328917
0.0044798
0.00200068
0.00389604
0.00549622
0.00432522
0.00515601
0.00458889
0.00493733
0.00461977
0.00443828
0.0061147
0.00411987
0.00474517
0.00466741
0.00297361
0.00465828
0.00469515
0.00484828
0.00531192
0.00430544
0.00469803
0.0017082
0.00456808
0.00453353
0.00435306
0.00437635
0.00445926
0.00448878
0.00442181
0.00495305
0.00503067
0.00430382
0.000883117
0.00493878
0.00489113
0.00469815
0.005183
0.00465482
0.00530083
0.00511041
0.00435339
0.0036347
0.00430046
0.00439026
0.00520526
0.00400908
0.00394976
0.00555218
0.00431814
0.00459318
0.00454002
0.00249905
0.00716337
0.00584423
0.00376736
-0.000398674
0.00482523
0.00445317
0.00459397
0.00429265
0.00455113
0.00437312
0.00438041
0.00459248
0.00507932
0.00426368
0.00327597
0.00334761
0.00504945
0.00138795
0.00504039
0.00247121
0.00425779
-0.000589776
0.00460305
0.00475684
0.00488264
0.00468098
0.00424705
0.00466737
0.00337765
0.00476275
0.00429765
0.00400526
0.00398987
0.00442223
0.00420413
0.00430908
0.0045996
0.00381155
-0.00109679
0.00395415
0.00589514
0.00369144
0.00464663
0.0053523
0.00475601
0.00468813
0.00581059
0.00724119
0.00483396
0.00472765
0.00261994
0.00474977
0.00730286
0.00557739
0.00445859
0.00472922
0.00471808
0.00489417
0.00436669
0.00302089
0.00481443
0.00459636
0.00470222
0.00325134
0.0048865
0.00146488
0.00495372
0.00464258
0.00517858
0.00449455
0.00724524
0.00151992
0.00505134
0.00373934
0.00454291
0.00448787
0.00526745
0.00459781
0.00541768
0.00480199
0.00462246
0.00460548
0.00484023
0.00463886
0.00453438
-0.000920966
0.00569554
0.00480785
0.00463218
0.00469825
0.00425381
0.00326781
0.00520482
0.00483103
0.00492871
0.00574968
-0.00110179
0.00456124
0.00453013
0.00451999
0.00449522
0.00452981
0.00450613
0.000777006
0.00437996
0.0027737
0.00448468
0.0044311
0.00437475
0.00450501
0.00460607
0.00476722
0.0044631
0.00451911
0.00446848
0.00329166
0.00444773
0.00418121
0.00427165
0.00404675
0.00418508
0.00470192
0.00504143
0.00508729
0.00469736
0.00440507
0.0048135
0.000980293
0.00474567
0.00467225
0.00485755
0.000705261
0.00475518
0.00482621
0.00427654
0.00474682
0.00503243
0.00485789
0.00442039
0.00511778
0.0042267
0.00444825
0.00371091
0.00331325
0.00523844
0.00405997
0.00517089
0.00543411
0.00451363
0.00522302
0.00467817
0.00472456
0.00543172
0.00454855
0.00500696
0.00456756
0.00531473
0.00521474
0.00441378
0.00409284
0.00435875
0.00485702
0.00430773
0.00464931
0.00461342
0.00416327
0.00482856
0.00388756
0.00447219
0.00439834
0.00421245
0.0048108
0.00402202
0.00393294
0.00429207
0.00426518
0.00450487
0.00383047
0.00436633
0.00373468
0.00409144
0.00437141
0.00435435
0.00409028
0.00302367
0.00275182
0.00444279
0.00423489
0.00587458
0.00450337
0.00461626
0.00313997
0.0035885
0.00411894
0.00414914
0.00448895
0.00471407
0.00507214
0.00496837
0.00473074
0.004451
0.00560507
0.00342968
0.00666279
0.00559798
-0.00114591
0.00587239
0.00446558
0.00509108
0.00466895
0.00574164
0.00109153
0.00391643
0.000909989
-0.00223848
0.0048568
0.00701286
0.00501642
0.00465906
0.00445288
-0.000626939
0.00570927
0.00577433
0.00588463
0.0010827
0.00425449
0.00442191
0.00453694
0.00457404
0.00448958
0.00462311
0.00455736
0.00445206
0.00448062
0.00437278
0.0035454
0.00450768
0.0033735
0.00446219
0.00455201
0.0045307
0.00461338
0.00460491
0.00419948
0.00446027
0.00463875
0.00440599
0.0043522
0.00480293
0.00447091
0.00467639
0.00281279
0.00420517
0.00442747
0.00304664
0.00418825
0.0045028
0.00449268
0.00345983
0.00413338
0.00565796
0.00551106
0.00330725
0.00504277
0.00542483
0.00354295
0.00373233
0.00438096
0.003903
0.00467641
0.0042468
0.00344401
0.00412295
0.0028229
0.00646241
0.00273432
0.0048701
0.0051282
-0.00114694
0.00545424
0.00390061
0.00513541
0.00374171
0.00387067
0.00351632
0.00476405
0.00469885
-8.1811e-05
0.00435914
0.00658012
0.00472921
0.00473847
0.00423865
0.00329101
0.00556851
0.00393565
0.00487427
0.00462329
0.00485823
0.00449384
0.00502184
0.00472007
0.00475642
0.00344615
0.00422432
0.00492181
0.00430691
0.00457949
0.00456306
0.00470683
0.00204791
0.00491555
0.00464909
0.00475818
0.00468443
0.00450334
0.0040986
0.00449285
0.00426481
0.00457755
0.0046038
0.0047938
0.0043295
0.00382013
0.00439692
0.00427155
0.00425077
0.00417373
0.00391615
0.00427355
0.00459074
0.00446548
0.00457304
0.00443556
0.00419053
0.00445194
0.00516951
0.00350061
0.00423258
0.00362007
0.00339697
0.00445707
0.00518181
0.0043076
0.0046076
0.00406784
0.00441855
0.0041642
0.00361966
0.00505319
0.00172154
0.0046133
0.00652355
0.00667715
0.00416207
0.00567508
0.00441304
0.00341426
0.00536369
0.00258238
0.00522605
0.00410349
0.00507836
0.00635219
0.00511244
0.00456915
0.00512787
0.00457756
0.00624668
0.00468387
0.00473522
0.00474552
0.00490254
0.00484717
0.00470723
0.0044242
0.00448073
0.00462821
0.00141514
0.00479272
0.00415377
0.00598072
0.00422072
0.000642656
0.00102137
0.00520595
0.00243705
0.00463404
0.00519471
0.00466089
0.00520127
0.00465562
0.00480565
0.00141808
0.00115223
0.000651603
0.00101575
0.0047433
0.00484389
0.00581325
0.00454671
0.00469614
0.00447227
0.00512918
0.00476013
0.00476267
0.00425748
0.00526428
0.00472173
0.00479521
0.00479301
0.00477169
0.00482076
0.00471638
0.00476132
0.00472382
0.00491806
0.00432651
0.00432168
0.00272516
0.00445466
0.00448034
0.00457633
0.00480804
0.00461444
0.00443376
0.0049456
0.00329158
0.00432324
0.00449336
0.00471126
0.00467782
0.00460203
0.0047123
0.00478815
0.00469107
0.00459359
0.00230095
0.00418455
0.000841436
0.00332162
0.00437059
0.00461519
0.00469309
0.00518819
0.00408801
0.0046014
0.00522948
0.00274244
0.00381151
0.00494745
0.00309958
-5.56912e-06
0.00463683
0.00499488
0.00463907
0.00477482
0.00513129
0.00489824
0.00448414
-0.000201806
0.00606792
-2.49708e-05
0.0032499
0.00141461
0.000892743
0.00501673
0.00347119
0.00473664
0.00453594
0.00462152
0.0033296
0.00312575
0.00181546
0.00468849
0.00386027
0.00378126
0.00339307
0.00242423
0.00341273
0.00310751
0.00394985
0.00564664
0.00435549
0.00436008
0.00426379
0.00391413
0.00307454
0.00445199
0.00481525
0.0045709
0.00436037
0.00440142
0.00434131
0.00445596
0.00478371
0.00602538
0.00479818
0.0043837
0.00503831
0.0047593
0.00458717
0.00480816
0.00465154
0.00470807
0.00460872
0.00499975
0.0052826
0.0046167
0.00341843
0.00541179
0.00450054
0.00448151
0.00441335
0.00402794
0.00469945
0.00458029
0.00311936
0.000933249
0.00470328
0.00456236
0.00473714
0.00470144
0.00461033
0.00396817
0.000223079
0.00304466
0.0035028
0.00442402
0.00463715
0.00451746
0.00476525
0.00482015
0.00469054
0.00465025
0.00491758
0.00456606
0.00482754
0.00445211
0.00447814
0.0045892
0.00470679
0.00426482
0.00462439
0.00446514
0.00453395
0.00532824
0.00469797
0.00453715
0.00468852
0.00481905
0.00190323
0.00320985
0.00462102
0.000769304
0.00337488
0.00502446
0.00534037
0.00505662
0.000840988
0.00468656
0.00552406
0.00487819
0.00485054
0.00457949
0.00663043
0.00545981
0.00630685
SCALARS CoVolArea double 1
LOOKUP_TABLE default
3327.99
3355.86
3415.66
3461.26
3617.51
3193.36
3442.81
3491.98
3212.3
3254.48
3178.17
3188.47
4098.44
4152.65
4308.96
4286.65
4389.37
4532.4
4495.35
4393.22
4314.4
4209.97
4205.24
4183.21
4464.8
4385.83
4134.12
4226.83
4409.08
4287.12
4315.49
4444.02
4312.65
4528.2
4690.92
4648.85
4579.05
4320.18
4358.23
4342.25
4221.88
4195.62
3892.15
4381.81
3849.99
3908.38
4238.52
3888.58
3757.85
4181.64
3953.2
4285.29
4090.22
3782.34
4440.13
4120.69
4309.95
3861.59
4707.17
4207.43
4233.91
4736.99
4281.1
4790.78
4302.38
4622.84
4073.69
4249.73
4676.1
3974.7
4557.8
4077.18
4353.03
4029.61
4113.79
4249.35
3857.33
4505.77
3881.92
3978.2
4197.24
3835.5
4240.49
3980.88
4522.34
4075.97
4079.84
4525.41
4387.36
4720.82
4339.64
4409.84
3930.81
4015.65
4195.33
4244.5
4393.97
4037.82
4504.1
3965.29
4258.48
4623.79
4077.91
4517.81
4055.31
4715.32
4272.83
4133.8
4680.27
4123.24
4610.08
4070.68
4332.51
4777.89
4310.1
4147.16
4702.23
4008.69
4482.11
4875.15
4368.31
4776.94
4295.14
4463.7
4950.88
4259.51
4758.47
4272.84
4632.16
4194.06
4140.24
4609.11
4054.42
4594.35
4033.03
4545.18
4125.13
4098.65
4502.68
4120.35
4488.99
4028.98
4505.31
3995.21
4262.48
4494.02
3857.1
4736.34
4579.28
4551.82
4691.45
4831.61
4607.03
4461
4464.16
4435.31
4552.9
4544.83
4647.06
4516.24
4246.18
4301.55
3920.7
3895.29
3937.26
4257.7
3881.37
3796.06
3889.43
3920.1
4454.24
3838.23
3851.13
3712.74
4207.89
3873.99
3875.03
3945.33
3912.56
4289.77
3782.91
3905.75
3866.21
4274.65
3807.43
3835.4
3904.32
3908
4218.74
4792.75
4693.33
4806.62
4047.53
4031.35
4288.41
3892.17
4071.04
4036.51
4409.48
3794.8
3798
4401.75
3907.84
3840.75
3897.55
4399.93
4043.6
4055.21
3958.52
4421.74
4053.92
4097.48
3902.5
3904.27
4301.27
4849.21
4870.62
4836.64
4199.65
4076.24
4611.41
4215.12
4203.12
4264.8
4665.75
4095.18
4230.22
4706.55
4313.04
4245.99
4256.33
4625.12
4200.76
4350.24
4210.13
4693.92
4365.08
4229.23
4258.52
4377.34
4719.22
5280.25
5319.52
5305.44
4201.72
4001.67
4632.02
4266.6
4036.11
4199.15
4509.1
4200.32
4301.81
4600.21
4288.7
4166.78
4303.82
4643.03
3911.31
4117.09
3940.88
4467.87
4095.29
3968.02
4077.9
4171.55
4557.18
5171.03
5145.94
5091.36
4033.76
4387.48
4043.88
3966.38
4200.91
3854.55
3941.23
4185.9
3856.36
3980.52
3905.52
4344.58
3883.15
3738.64
4172.92
4010.16
3934.21
4080.9
4420.48
4751.66
4603.91
4633.87
3904
3968.48
4488.81
3974.79
3832.46
3938.38
4379.46
3882.46
3929.23
4260.19
3936.77
3940.23
3832.29
4276.26
3801.92
3930.84
3905.8
4304.35
3899.49
3907.08
3940.33
3938.69
4260.42
4837.62
4699.23
4840.18
4063.61
3922.01
4392.9
4075.59
4088.63
4141.21
4519.71
3936.2
4050.76
4570.5
4154.48
4122.06
4051.91
4378.36
4330.32
4410.49
4312.59
4594.04
4382.31
4215.98
4251.89
4379.54
4661.22
5030.05
5143.84
5115.62
3924.95
3874.14
4253.36
3963.06
3860.8
3979.65
4345.15
3871.39
4128.27
4169.56
3973.23
3846.01
4071.04
4250.36
4164.75
4156.94
4030.25
4474.57
4173.59
4093.54
3952.14
4041.51
4259.91
4755.88
4727.21
4897.11
4025.87
3835.82
4496.93
4104.02
3979.78
4042.02
4375.12
4213.67
4305.99
4574.91
4274.3
4168.03
4266.31
4554.35
4074.55
4095.65
4046.58
4384.96
4078.62
4016.2
4105.24
4131.43
4539.08
5086.26
5099.16
5025.73
4325.86
4211.67
4678.47
4335.65
4202.29
4319.55
4639.92
4058.66
4236.21
4556.71
4243.33
4080.27
4301.51
4673.39
3962.59
4163.67
3946.65
4605.63
4227.61
4132.78
4000.58
4167.7
4509.28
5226.21
5156.62
5195.83
4240.1
4348.88
4267.07
4593.41
4280.38
4159.58
4314.64
4332.55
4815.89
4013.64
4138.51
3965.84
4660.78
4227.33
4175.01
3953.33
4150.96
4560.54
4384.9
4466.45
4326.03
4850.98
4510.52
4420.26
4301.68
4447.01
4741.05
5312.79
5331.51
5394.51
4434.48
4206.87
4766.38
4396.25
4271
4449.05
4809.17
4380.85
4547.11
4856.07
4535.1
4398.93
4542.04
4872.18
4165.57
4404.21
4228.68
4801.31
4418.1
4246.74
4256.62
4357.38
4727.37
5363.96
5355.64
5313.74
4230.74
4112.76
4607.53
4231.21
4131.18
4234.37
4551.08
4049.61
4189.09
4519
4199.25
4085.79
4203.38
4594.4
4046.82
4121.9
4039.9
4521.08
4158.41
4035.51
4007.99
4146.97
4497.13
5174.17
5133.52
5148.04
4214.34
4104.28
4515.15
4212.74
4014.35
4180.32
4427.61
4077.37
4117.18
4579.97
4153.75
4054.34
4094.84
4449.77
3923.65
4091.39
3899.89
4368.04
4123.92
3968.87
4039.19
4151.98
4591.51
4985.17
5033.81
4943.2
4249.98
4372.6
4106.6
4246.2
4568.87
3863.35
4121.85
4294.28
4102.18
4030.14
4043.97
4293.29
4003.6
3821.23
4449.18
4065.71
3902.93
4058.86
4303.69
4852.28
4799.59
5019.74
4448.65
4720.52
4419.7
4398.81
4595.98
4114.01
4435.22
4111.62
4207.16
4642.35
4078.68
4533.58
4153.6
4102.62
4438.35
5191.01
5071
5134.92
4292.74
4750.43
4278.34
4218.45
4497.2
4454.05
4685.71
4416.94
4479.84
4809.56
4066.58
4447.18
4072.71
4167.66
4592.68
5324.29
5255.5
5201.74
4101.15
4404.26
4066.93
4129
4534.49
4140.92
4363.71
4094.78
4146.58
4455.86
3994.94
4533.61
4084.38
4007.77
4299.41
4916.69
4882.72
4982.04
4087.07
4428.6
4099.5
4158.25
4550.77
4108.19
4543.57
4144.18
4108.92
4428.88
4315.66
4599.62
4291.57
4279.67
4575.71
5070.41
5122.63
5129.76
3838.65
4405.48
4021.85
4014.81
4382.89
3987.49
4335.64
3995.22
3964.98
4315.81
4085.1
4233.84
3949.69
4091.67
4402.61
4779.85
4733.87
4775.89
SCALARS SignedDistance double 1
LOOKUP_TABLE default
274.745
269.78
243.605
228.836
198.874
292.598
302.067
220.314
287.426
290.652
307.91
309.557
348.782
290.306
349.278
343.079
267.027
203.869
214.647
239.901
260.07
345.548
279.378
342.838
236.297
224.727
290.701
291.296
233.771
288.066
255.656
229.913
271.14
223.896
182.823
189.787
241.168
245.17
239.198
279.689
275.376
326.614
308.701
351.054
321.421
297.115
327.181
336.663
323.3
322.793
289.167
316.56
269.004
319.687
342.948
261.813
314.203
317.79
213.854
233.829
221.715
210.054
213.751
207.813
210.211
233.78
256.822
225.088
231.743
296.748
256.464
268.548
297.393
346.797
319.446
359.404
339.394
342.443
305.184
283.101
314.118
319.996
315.293
283.428
256.996
258.188
276.333
263.365
216.666
232.083
205.383
323.654
306.211
324.916
324.151
278.407
295.67
260.726
252.884
293.228
220.034
224.566
293.366
253.614
265.548
222.188
220.218
252.006
224.182
250.442
247.604
284.857
260.983
213.896
227.843
258.356
230.977
284.023
171.112
185.855
202.738
223.689
226.148
174.401
191.473
230.36
225.076
236.112
228.525
220.784
232.552
228.105
274.089
256.889
273.682
244.959
241.494
289.794
272.604
309.568
292.682
278.81
279.229
329.044
312.373
309.305
318.469
223.039
251.548
249.425
233.014
197.429
252.71
280.243
260.164
302.427
242.113
249.768
219.724
336.449
311.127
295.288
290.784
313.361
297.629
349.803
331.393
328.135
342.84
336.545
350.468
302.82
316.712
322.85
308.385
311.75
292.947
352.431
331.634
347.586
308.261
306.574
290.707
338.185
323.094
337.554
289.072
305.961
306.309
345.16
324.72
341.849
297.793
273.815
339.8
322.053
264.079
293.558
290.476
306.637
320.049
342.281
332.339
331.946
334.14
345.575
266.276
291.599
293.515
291.655
288.956
262.261
338.489
316.857
335.934
336.23
334.888
314.53
249.079
253.095
237.915
240.225
220.406
222.264
208.19
245.807
238.755
199.814
211.473
207.455
233.97
239.391
215.943
210.888
214.399
204.568
208.31
213.385
206.412
208.443
201.324
217.534
205.151
203.279
243.631
263.802
226.046
231.69
254.104
240.997
244.695
222.252
220.948
238.925
229.296
230.685
222.231
224.14
306.792
287.519
286.654
256.083
274.79
273.403
252.637
269.903
254.09
231.691
242.42
241.438
281.246
274.672
275.623
301.614
322.735
328.803
324.287
350.004
334.915
347.257
304.713
282.366
338.527
325.008
351.607
354.141
342.294
348.345
351.51
301.1
338.04
325.541
309.816
286.734
343.038
332.94
324.581
327.367
342.299
288.219
302.033
296.467
298.291
280.124
316.573
330.142
305.119
302.046
286.915
333.311
318.159
335.036
280.627
298.974
296.731
331.506
314.184
333.007
273.689
275.284
273.195
272.5
241.271
256.325
240.585
292.493
285.474
254.483
268.857
254.673
279.657
275.815
219.863
220.934
198.614
224.369
222.509
211.41
220.405
224.29
234.604
258.864
246.354
241.677
325.74
308.328
333.933
331.279
301.9
322.668
319.628
324.105
336.128
309.715
322.722
308.916
337.685
335.986
260.163
266.691
249.948
305.693
287.132
287.763
275.048
277.582
289.64
325.998
311.023
318.472
278.382
299.439
242.849
258.092
289.215
272.152
269.226
223.019
221.819
227.534
221.296
220.541
222.647
228.307
296.985
278.087
284.594
269.61
272.807
289.901
248.169
258.248
242.077
234.881
235.301
250.345
216.409
220.312
214.3
214.853
223.301
221.125
228.891
258.872
238.487
236.463
234.298
251.232
220.992
214.563
267.037
267.509
283.69
242.037
254.179
239.104
268.811
264.523
247.794
221.992
231.617
232.304
243.492
247.883
240.09
239.896
242.102
270.221
199.099
217.031
194.691
273.597
269.298
285.727
225.241
244.45
241.024
278.856
258.335
247.444
184.443
179.702
198.57
178.345
173.88
172.068
211.932
188.862
203.267
219.116
206
195.15
235.907
224.206
196.169
222.082
233.612
237.901
248.122
181.674
183.067
182.726
177.325
177.791
180.199
180.748
234.345
242.516
251.166
244.626
239.636
233.416
210.8
226.565
200.884
200.458
197.399
233.025
218.173
220.54
234.338
225.272
227.473
220.642
230.052
234.372
226.797
233.174
226.803
236.547
225.895
232.47
294.721
283.633
292.598
248.115
266.441
255.134
257.65
263.716
247.735
237.306
239.302
242.548
227.333
232.161
238.626
230.43
256.543
240.45
257.415
295.686
291.13
291.984
290.162
284.08
270.349
254.022
304.939
301.154
281.806
282.077
300.921
292.121
277.99
298.787
295.132
256.893
279.353
266.717
247.487
273.965
258.786
268.103
287.275
306.76
318.291
318.647
318.594
326.486
309.95
290.012
303.65
304.245
297.47
300.789
324.115
314.127
313.404
288.498
313.234
300.863
218.992
227.651
220.613
215.941
217.665
270.334
264.306
266.799
253.715
239.855
270.888
235.44
252.566
265.758
263.721
234.9
248.682
232.442
260.287
207.42
231.545
257.752
261.707
184.764
214.811
197.067
182.099
188.323
288.5
269.667
280.625
264.092
243
209.448
221.806
237.736
291.784
261.58
274.63
294.509
298.255
243.904
274.389
258.302
244.682
250.01
317.501
304.78
311.564
314.476
295.056
268.529
280.474
289.091
261.823
259.522
259.21
243.701
231.151
276.304
240.082
256.427
268.876
263.329
219.695
221.498
218.57
217.3
223.36
243.401
231.494
227.499
317.808
330.8
329.017
333.782
342.218
305.924
283.352
296.09
326.311
334.563
277.163
320.022
298.495
271.952
272.138
331.155
301.262
324.229
