# vtk DataFile Version 4.2
vtk output
ASCII
DATASET POLYDATA
POINTS 642 double
-132.811 254.787 -1.66115
130.792 264.725 -4.96235
-129.454 -222.779 42.1406
145.485 -230.73 42.5977
1.35493 -176.173 317.99
3.12704 109.723 279.494
3.12929 -78.9377 -119.141
2.46911 199.93 -197.275
181.018 60.7023 -117.421
178.826 3.45368 209.706
-155.845 59.2026 -116.857
-156.57 7.91377 207.927
-161.509 158.811 59.6939
-99.3944 68.2109 271.034
-38.0495 160.65 126.401
47.6863 162.518 132.411
1.22942 304.016 -20.3447
90.4801 301.982 -104.237
-77.9739 295.358 -101.171
-121.827 120.36 -192.443
-199.038 192.718 -40.9997
-165.799 23.6866 37.1317
109.996 72.4028 277.226
141.338 134.678 67.2172
-124.42 -99.2059 294.385
6.5829 1.024 357.789
-163.619 -132.651 -13.992
-152.215 -140.845 190.243
4.54885 59.0323 -237.781
-100.469 -0.12019 -173.152
195.059 193.437 -51.32
132.519 122.89 -196.048
175.812 -143.207 195.382
139.835 -100.283 298.564
100.756 -245.411 242.556
-92.2967 -241.742 241.377
0.321734 -248.9 40.7825
-84.7309 -213.145 -63.9542
97.0611 -215.482 -65.7676
110.953 -2.78501 -175.954
178.973 -143.352 -16.5866
186.142 6.31252 57.5043
-159.381 209.777 20.8029
-116.869 145.552 76.8711
-108.612 239.836 23.5925
-136.128 38.252 244.13
-121.494 79.0317 211.451
-142.491 53.8556 181.753
-22.1353 130.668 235.12
-73.215 108.46 236.106
-49.6995 93.4664 283.415
-33.1686 265.054 27.1072
-57.9977 298.508 -15.0039
32.4529 133.403 234.56
5.82444 161.504 138.196
71.895 302.809 -15.4623
44.608 265.346 27.4788
104.712 245.01 21.0107
-47.1085 326.81 -53.9758
-103.782 287.316 -48.9693
111.437 303.155 -54.1488
57.0055 328.038 -54.203
-42.7672 255.024 -159.902
2.05415 304.235 -107.85
50.139 256.769 -161.625
-159.622 239.857 -74.8384
-176.294 228.944 -23.8515
-70.5725 160.589 -206.118
-108.134 213.89 -147.29
-181.016 166.372 -66.0515
-170.892 175.163 -104.17
-151.573 84.954 -152.567
-192.279 190.957 -4.11751
-153.058 79.4845 -23.685
-200.699 168.526 -30.5795
-147.827 160.357 43.4503
-159.305 3.31574 141.369
104.02 153.517 94.8733
158.673 219.719 14.4979
60.907 94.806 286.665
82.2702 112.5 240.479
165.155 47.3567 185.183
132.532 80.322 220.532
150.341 39.4687 249.731
-51.7664 42.8533 321.972
4.39821 64.1233 324.396
-145.382 -49.8389 254.138
-114.53 7.81031 292.188
3.25432 -53.0141 350.958
-56.9766 -33.708 335.454
-77.7403 -144.012 321.934
-169.727 -53.0497 99.8831
-155.691 -73.596 209.732
-145.967 -53.222 -55.4282
-170.285 -72.3031 14.5385
-142.39 -154.919 117.316
-167.373 -138.566 33.1005
-154.62 -183.697 7.63454
-122.792 54.7522 -194.774
-142.337 29.3314 -143.451
3.64408 110.221 -239.408
-71.6008 89.5647 -231.368
-68.4161 -44.1816 -156.335
-66.3482 20.5749 -215.506
2.25874 0.5789 -211.064
116.396 220.08 -153.601
77.1035 163.475 -207.637
178.57 234.897 -25.2848
164.721 248.601 -80.43
172.405 82.6811 -157.428
177.276 173.596 -113.177
183.693 135.943 -76.2244
160.577 -165.17 116.351
161.345 -199.331 215.013
121.576 -233.204 177.137
164.548 -49.987 259.205
176.991 -129.646 247.011
179.707 -78.2431 209.629
63.2065 -221.182 304.741
129.633 -186.234 292.99
85.5484 -148.851 322.683
59.8969 -255.288 190.104
93.5777 -252.887 42.0971
-56.8853 -219.464 302.223
1.60284 -247.319 243.895
-81.8066 -251.307 42.7917
-54.6543 -254.038 188.032
-108.766 -231.076 172.611
65.2112 -250.967 -18.2421
128.753 -238.229 -18.3384
-114.995 -231.884 -16.0283
-58.9993 -250.879 -17.884
61.8653 -172.241 -93.8251
0.766194 -211.415 -64.4361
-54.343 -171.227 -94.4837
153.898 -189.11 -46.7894
176.029 -193.75 5.17533
74.227 -45.7708 -158.417
105.487 -157.584 -92.8961
166.76 -44.5062 -57.1843
151.245 -108.712 -66.2605
160.113 29.3931 -146.7
183.414 -145.138 33.7916
167.191 59.3828 -46.3115
186.495 -83.5731 17.4939
185.452 -56.1682 103.878
182.276 7.9313 153.328
62.8669 -28.0941 344.754
125.52 6.91223 299.27
60.6002 42.2308 328.082
-142.093 -190.22 215.883
-120.164 -181.328 287.109
-153.248 -131.879 242.926
-94.1121 -152.175 -91.6112
-136.521 -181.973 -42.3418
-139.554 -100.984 -63.6006
136.406 54.9577 -198.316
72.0879 19.4539 -217.453
74.3569 89.43 -234.896
177.13 83.8732 45.2142
191.791 162.204 -28.8503
184.878 195.717 -11.9841
-147.802 233.152 10.0599
-135.426 227.059 23.2691
-120.534 248.07 13.7133
-148.885 140.71 63.0803
-148.071 203.811 30.8867
-165.427 186.689 27.3623
-80.3599 223.174 40.1861
-123.237 218.945 34.1564
-79.6957 153.551 101.498
-148.436 23.2366 226.027
-143.137 43.8304 215.053
-151.412 27.9363 199.643
-113.846 73.9014 243.079
-129.753 60.4798 230.554
-119.996 53.2717 259.202
-136.208 120.343 121.347
-133.441 67.6532 196.353
-126.78 95.4608 146.441
-9.81005 121.787 257.707
-36.2053 113.519 260.806
-20.3955 102.522 283.101
-58.3413 124.881 213.171
-48.2484 120.564 237.322
-32.4168 136.218 213.168
-75.3112 82.0085 279.302
-63.5613 102.685 260.249
-86.6022 91.0789 255.467
-107.41 105.145 169.71
-100.441 94.7449 224.618
-89.2676 112.367 195.439
-81.7534 265.589 5.05885
-93.7453 275.872 -11.0892
-36.8861 233.62 53.4325
-62.5754 253.96 23.0894
-38.9535 305.862 -16.2686
-46.6388 285.086 3.1579
-25.6032 288.02 5.24159
17.5614 122.669 257.694
4.2424 133.886 236.695
31.253 161.301 138.736
18.6464 142.691 215.162
43.7727 140.548 212.219
-7.68047 141.718 215.86
-16.4024 162.124 135.589
95.9858 287.983 -12.7712
85.5478 276.641 2.90821
119.033 257.183 8.42803
32.4952 286.844 3.81765
61.1733 287.728 2.65102
49.5484 307.658 -17.644
77.3448 223.323 49.9352
68.2669 260.986 22.7742
45.3795 233.301 57.014
-10.9216 233.291 64.9427
18.2998 232.277 66.7607
1.09371 264.138 33.9838
-78.7056 299.655 -35.0926
-123.4 272.449 -25.671
-27.5596 320.246 -38.8548
-51.8409 316.556 -39.0183
-91.7195 299.406 -72.7552
-69.4025 316.507 -55.252
-64.0924 320.583 -73.7429
119.355 285.271 -34.1724
90.5895 309.178 -37.5107
76.4327 325.012 -75.3224
85.2988 321.776 -55.3293
104.802 309.763 -74.3728
65.3678 319.065 -38.6923
34.3127 320.168 -39.6843
-20.9503 230.422 -182.282
2.25008 257.698 -165.488
26.2656 231.424 -183.381
-46.9216 306.812 -109.591
-24.9085 282.978 -136.183
-61.1264 278.737 -129.931
72.2823 282.565 -131.766
30.4672 282.743 -136.165
55.5863 308.287 -109.665
2.56346 324.563 -53.9234
33.3943 326.489 -77.9444
-27.2822 326.505 -77.8849
-151.314 257.898 -32.446
-156.79 244.273 -14.3682
-119.175 268.361 -87.4451
-136.358 266.571 -58.8452
-194.892 208.538 -32.1069
-172.496 237.383 -43.5298
-186.859 212.453 -57.5542
-37.0005 181.894 -202.465
-55.35 213.882 -184.226
-114.415 166.682 -170.817
-86.3442 189.762 -180.502
-98.8489 139.302 -203.474
-73.8788 238.456 -157.982
-92.1993 255.151 -124.763
-160.783 100.879 -95.7213
-161.901 118.641 -108.057
-156.627 70.7024 -133.02
-187.372 186.606 -72.9114
-177.877 172.838 -84.0776
-194.011 189.939 -49.2639
-138.585 102.386 -174.392
-155.825 133.282 -126.37
-142.116 144.41 -147.929
-140.086 231.913 -110.817
-148.016 192.457 -127.795
-172.897 205.765 -93.3046
-168.768 221.687 -1.70887
-195.643 195.78 -28.512
-189.251 204.372 -14.1183
-177.206 197.521 11.2979
-177.976 180.798 19.009
-157.434 66.9756 -92.5539
-170.834 136.147 -51.0827
-192.376 127.478 -13.6657
-195.012 139.09 -19.0417
-174.84 59.9971 18.9894
-199.371 174.602 -33.6432
-195.673 185.229 -34.3742
-151.756 30.8082 172.889
-157.247 8.38555 189.014
-164.655 164.2 50.22
-141.374 82.1924 113.107
-166.827 2.39831 84.9076
-154.823 43.8059 108.085
-166.94 73.4646 19.0918
-193.947 195.752 -28.1565
-185.78 169.769 -25.6249
-190.344 186.973 5.28228
137.461 233.292 20.8255
150.262 238.684 8.52157
74.6634 159.286 116.621
117.779 219.159 36.3102
159.595 203.128 18.066
143.984 213.933 27.1298
126.185 146.197 76.308
29.1748 102.728 283.987
46.8182 115.102 261.884
96.8271 94.3578 261.268
74.4791 105.166 263.933
85.9457 85.0256 284.393
58.8057 124.511 238.138
65.8181 131.088 215.268
174.412 25.6998 198.057
160.19 43.0484 217.923
166.907 19.7716 229.827
137.285 89.7727 175.331
149.861 65.6424 202.926
149.551 77.3164 156.482
131.692 57.5216 265.587
141.918 62.3266 237.478
124.447 77.1412 250.553
94.4726 118.323 206.528
109.376 98.1862 232.791
118.692 104.497 191.139
-21.541 81.5688 305.414
3.31688 90.4936 302.622
-79.214 59.1604 297.042
-52.877 70.8217 303.895
5.66565 32.0034 343.878
-22.0099 52.5391 327.053
-20.1946 21.8272 344.295
-152.771 -18.4466 232.127
-142.91 6.44142 250.142
-118.742 -44.3028 292.361
-132.769 -19.3772 272.89
-139.027 -75.2811 274.9
-127.419 25.9713 269.193
-109.597 40.5644 283.051
-1.45106 -120.734 322.753
-42.8792 -105.603 327.028
-49.1791 -160.939 324.14
-17.9466 -9.5275 355.272
-24.9074 -41.6271 347.997
6.4939 -17.5704 363.824
-103.02 -123.305 310.736
-73.201 -89.4806 325.773
-96.0724 -71.1801 315.694
-85.6274 26.6087 310.12
-90.2565 -14.4177 316.508
-51.756 7.97662 335.868
-158.128 -21.3269 176.587
-157.031 -29.8458 207.481
-172.312 -21.5417 74.5746
-168.493 -22.6532 116.184
-154.448 -115.801 201.775
-157.09 -64.1234 163.187
-156.204 -97.7116 149.709
-147.747 24.1068 -104.385
-149.725 -1.19875 -51.8373
-168.766 -106.884 0.471388
-166.055 -75.5565 -7.62501
-160.244 -106.62 -24.821
-165.72 -24.7912 13.3449
-171.627 -24.0259 36.0442
-135.634 -204.578 69.8532
-153.611 -183.633 37.94
-145.325 -205.797 21.8914
-147.173 -152.07 108.369
-156.955 -159.207 61.2509
-145.097 -156.765 167.656
-162.771 -158.074 -4.36112
-164.993 -159.328 22.2205
-168.732 -136.586 10.9353
-171.221 -61.1472 44.4842
-170.072 -109.046 20.7778
-166.603 -96.8858 61.3089
-149.36 55.5974 -151.854
-149.899 42.5861 -130.531
-124.652 85.6475 -196.813
-138.498 69.9517 -177.073
-127.242 19.3592 -160.451
-133.877 41.9653 -171.382
-115.693 28.5137 -185.905
2.48273 150.51 -221.115
-38.8941 136.234 -226.62
-35.2498 73.4007 -238.329
-36.8267 99.8976 -238.397
5.15004 83.7084 -245.063
-74.4165 120.881 -225.737
-100.099 106.529 -217.129
-53.2377 -56.0011 -142.738
-34.5375 -13.6363 -196.428
2.89021 -18.2446 -191.742
-86.6148 9.06682 -195.96
-62.6678 -3.68946 -197.172
-76.4822 -23.4069 -170.21
2.57647 24.8902 -226.72
-35.7146 9.12527 -216.185
-36.9062 35.3141 -229.422
-101.781 70.829 -217.3
-71.1156 53.1163 -228.608
-97.038 37.9141 -209.961
[...]
POINT_DATA 642
SCALARS Mean_Curvature double 1
LOOKUP_TABLE default
0.0189646
0.0206735
0.0157026
0.0161775
-0.00630517
0.0173893
-0.0122806
0.00211623
0.0298804
0.0171445
0.00871265
0.021408
0.0994166
0.0120632
-0.000535576
0.00448857
-0.00525894
0.0178872
0.0125762
0.0129838
0.093612
0.00824929
0.0139756
0.000287191
0.00958555
0.0143387
0.0110677
0.00662209
0.00214667
0.00622066
0.011172
0.0108609
0.00883507
0.0110181
0.0129213
0.0167395
-0.00220795
0.0172221
0.0172128
0.0063823
0.00822515
-0.00113019
0.0200176
-0.00922075
0.00769836
0.0123174
0.00963276
0.00320085
0.00954956
0.00670823
0.0126244
0.00844169
0.0136652
0.010559
-0.00424427
0.0184392
0.00769774
-0.00329072
0.0383764
0.00351883
0.025151
0.0318537
0.0100134
-0.000990622
0.00994855
0.0123427
0.0181203
0.00797182
0.00229404
0.00325944
0.0193783
0.0124318
0.109301
-0.0159637
0.204225
-0.0299199
-0.00105185
-0.00093345
0.0234429
0.013086
0.00682753
0.00790962
0.00515638
0.0112839
0.00940955
0.0133474
0.00240615
0.0121488
0.00760681
0.0046273
0.0123896
0.00519434
0.000219529
-0.000884793
0.00901328
-0.0328343
0.00739904
0.0100284
0.0179846
0.0227488
0.00783606
0.0126285
-0.00663679
0.0141115
0.00861132
0.00567585
0.00573219
0.0237319
0.0172038
0.0189235
0.00966122
-0.0108531
-0.0319652
0.0227004
0.00900876
0.00410103
0.019851
0.00300373
0.0183176
0.0148134
0.00957298
0.00712744
0.00903755
0.0179879
-0.00903793
0.0123216
0.00639193
0.0146835
0.0131
0.0191383
0.0187516
0.0154721
0.00967095
-0.00504072
0.0106292
0.0169944
0.0269952
0.0220575
0.0135183
0.00256741
0.0142251
0.0126512
0.00170492
-0.0123861
-0.00534199
-0.000467165
0.00931585
0.00776644
0.00830726
0.00974755
0.0119804
0.0153539
0.0150428
0.00972808
0.0119015
0.0260613
0.0162264
0.0130207
0.010673
-0.0151147
0.00823645
0.00346744
0.0147646
0.0126361
0.0181556
-0.0511451
0.00706262
-0.00948351
-0.00544501
0.00815354
-0.0032491
0.0126121
0.0117955
0.00881153
0.0125425
0.0132624
0.01243
-0.0560773
0.0247739
-0.0741355
0.0101992
0.00972988
0.00797997
0.00452485
0.00797312
0.00783497
0.0121599
0.0115829
0.011666
0.00298663
0.00890885
0.00783614
-0.000947211
0.00490279
0.00114632
-0.000913618
0.0180797
0.00749038
0.00814983
0.00922074
0.0100893
0.000426867
0.00856243
0.0133236
0.0111945
0.00391541
0.0109263
0.00290282
0.0113233
0.000138739
0.0127186
0.0135659
-0.00301009
0.00143157
0.00382649
0.0102822
0.00839438
0.00640334
0.00929431
0.0166586
0.0166962
0.0128907
0.0190809
0.0265701
0.0281733
-0.00134886
0.0128084
0.0270296
0.034448
0.026129
0.0136762
0.0104842
0.00901877
0.0100411
0.00947852
0.0186442
0.00619456
0.010257
0.0118672
0.0024323
0.0134678
0.0117443
0.0186351
0.0216817
0.0265345
0.0117798
0.00734972
0.014046
0.0421348
0.0189036
0.0164904
0.00191553
0.0120375
0.00389828
0.00579674
0.0111905
0.0101094
-0.000550979
-0.00118059
0.00746479
0.0160689
0.0463999
-0.00130103
-0.0438986
0.00979816
0.00416881
0.00362203
0.0110974
0.00946212
0.0173033
0.009226
0.138027
0.0176408
0.0199029
-0.0928246
0.00424648
-0.0129743
0.163633
-0.0140919
0.0149646
0.00690653
-0.0783373
0.00279674
0.00960716
0.11843
-0.00824116
0.00359558
0.00252257
-0.0134709
-0.101665
-0.0304853
0.0870485
0.0183233
0.0178321
-7.34473e-05
0.00267848
0.00616717
0.0125393
-0.00129695
0.00570836
0.00795221
0.0124128
0.0121598
0.0141067
0.00983762
0.00622269
0.0147882
0.00784768
0.00913464
0.00600176
0.00690493
-0.000335759
0.0145993
0.0104054
0.0130692
0.00596399
0.00827561
0.0056221
0.0084481
0.016434
0.0116987
0.0118971
0.0116557
0.0086643
0.0117091
0.010404
0.010985
0.00270457
0.00835647
0.0130919
0.0128767
0.0126947
-0.00535429
-0.00033046
0.00717953
0.0181816
0.00751361
0.0351076
0.00848291
0.00954163
0.00923188
0.0103414
0.00882623
0.0102701
0.000469024
0.00564207
0.00901105
0.00885619
0.00127096
-0.00265255
0.00020856
0.00837231
-0.00224294
0.0126989
0.00663198
0.00448735
-0.00339774
0.0187605
0.00745218
0.00670677
0.0164034
-0.0179024
0.052222
0.0322583
0.0171226
0.0167728
0.0159643
0.00363519
0.0068068
0.000750954
0.0201019
0.00903066
0.0138137
0.0142912
0.00777816
0.0125496
0.0126905
0.00170082
0.00824114
0.00920362
0.0126905
0.0216896
0.0159051
0.0183271
-0.00831032
0.0098887
0.00127251
0.0128457
0.00967152
0.0336914
0.00912938
0.0135843
0.0110134
0.0172352
0.0161597
0.0166216
0.00934875
0.00221214
0.00157436
0.00938518
0.0106151
0.00924191
0.00508866
0.0148123
0.0193483
0.0223221
0.0105061
0.0263937
0.0104798
0.00648039
0.0234668
0.0121114
0.0290603
0.0012849
0.00540134
0.0100836
0.0181562
0.0128359
0.0176584
0.0101575
0.0177923
0.00543286
0.00943384
0.00166833
0.00628877
0.0173709
0.00717124
0.0177359
0.0167699
0.013475
0.0194423
0.013235
0.00886302
0.00935032
0.0127084
0.0155214
0.00540169
0.00111932
0.00687053
0.00898602
0.0219695
0.0225755
0.00486995
0.0156168
0.0186145
0.0188287
0.006719
0.0143713
0.0115902
0.0191792
0.0167346
0.0122502
0.0145394
0.013912
0.0172756
0.00881031
0.00672768
0.000613917
-0.0114422
0.0255585
-0.00674121
0.0121123
0.0177992
0.0180928
0.0148149
0.0112598
0.0117562
0.0141316
0.00680075
-0.00456213
0.00425252
0.00797673
0.011758
0.0121296
0.0190096
0.0295129
0.0318513
-0.0104076
0.0201448
0.0167624
0.0114194
0.00627331
0.0185018
0.0206477
0.0128366
0.0166927
0.0188843
0.0178736
0.0210804
0.0171898
0.0139254
0.00962262
-3.45385e-05
-0.00850608
0.0040835
0.0104133
0.0121537
0.00720222
0.0132331
0.0145618
0.011756
0.000957907
0.0149274
0.012502
0.0189991
0.016948
0.0152209
0.0169001
0.0110787
0.02186
0.0144275
-0.0070378
-0.00511873
-0.00712429
-0.0587503
0.0224097
0.0240135
0.0174807
0.0108517
0.0432791
0.0159228
0.0098606
0.0019788
0.0053405
0.00668168
-0.0131697
-0.0107473
0.016583
0.00554726
0.0129495
0.0155369
0.0150237
0.00151353
0.0390282
-0.0112221
0.00375214
0.000711956
0.00328894
0.00118796
0.00781569
0.00612362
0.0145244
0.000866947
0.0156439
0.00256551
5.10298e-05
0.000933188
-0.00119523
0.022805
0.0274386
0.00313461
-0.000258375
-0.00289978
0.0049684
0.00421889
0.0138726
0.0236812
0.00831175
0.0123707
0.00995358
0.00970113
0.00851506
0.00570872
0.0127431
0.00826882
0.012521
0.012587
0.010408
0.00878554
0.014497
-0.000767444
0.0124196
0.0143566
0.0115357
0.0170658
0.0196299
0.0104648
0.0168663
0.0158947
0.0180698
0.0130139
0.00441464
0.00272699
0.0153512
0.0106529
0.0179962
0.0196503
0.0185887
-0.0731682
0.0132869
0.0301628
0.0838862
-0.0128193
0.0201453
0.0130333
0.0135554
0.0167836
0.0140877
-0.0833567
-0.0134238
0.0752775
-0.0247332
0.0116082
0.0132619
0.0143693
0.00629775
0.0131518
0.012494
0.0118006
0.0189404
0.0154052
0.0088004
0.00931942
0.0123782
0.00929744
0.0125287
0.00745218
0.0161554
0.0118606
0.0168692
0.0166706
0.0150681
0.0120071
0.0162003
0.00700829
0.0321837
0.00425616
0.00210328
-0.000337226
0.00349667
0.0290491
0.0235016
-0.00329716
-0.021481
0.0225418
0.00334185
0.0201682
0.0302213
0.0241798
0.0111862
0.0322739
0.0285408
SCALARS CoVolArea double 1
LOOKUP_TABLE default
711.258
783.749
1019.05
1089.97
1683.39
620.968
4080.42
1600.47
397.77
684.995
659.3
591.759
619.906
839.258
3453.69
2370.26
1370.72
1363.43
1419.15
1357.02
321.082
1360.23
853.021
2300.98
1492.43
737.68
741.971
1494.68
1306.6
2342.44
605.465
1508.3
1500.78
1667.97
1491.41
1322.17
3406.94
894.042
964.357
2445.3
917.777
2017.2
525.485
3084.69
891.887
725.411
1075.46
1495.72
673.294
889.664
860.346
1153.24
828.272
723.262
2298.29
682.199
1281.27
1103.37
716.101
1024.89
807.476
822.97
1506.8
1973.08
1618.71
1451.23
636.642
1577.26
2046.09
1196.99
1154.35
1122.31
227.662
4347.73
254.023
4045.32
1716.16
3014.2
398.209
904.587
829.541
972.809
971.177
893.035
1203.43
986.084
1212.79
1321.12
2229.48
1800.54
1397.31
2320.54
1393.36
1966.46
1023.92
2368.22
1380.55
761.26
847.719
802.818
1500.26
1150.19
979.46
981.728
1106.78
1977.51
1680.15
779.284
1405.73
1004.05
1494.74
1000.72
2275.6
1035.49
1562.69
1427.97
939.275
1191.27
1547.23
1515.81
1613.53
2195.39
1721.87
1527.02
2063.87
1519.65
1931.91
1460.09
1392
926.507
855.963
1233.1
1470.59
1671.08
1227.44
921.193
697.185
1042.11
1417.81
2038.43
1614.46
986.816
1734.01
3402.02
1061.17
2722.38
1238.77
1680.83
1399.31
1188.72
996.353
1344.68
795.204
1514.5
947.754
1376.77
938.169
1104.3
1185.76
2071.91
1037.66
446.498
626.078
502.954
715.949
1956.55
1265.22
658.471
2876.69
2029.8
4165.95
730.304
687.316
585.874
797.795
692.972
714.643
1625.13
1053.48
1360.15
712.29
787.008
796.551
2267.35
731.475
1441.69
785.019
734.317
812.551
2007.64
1078.92
2338.14
998.15
1042.3
2334.07
1270.15
768.357
830.958
1261.56
774.503
650.265
2105.53
1325.12
1210.08
1310.65
2228.88
887.861
838.429
769.66
1444.23
785.795
922.998
2453.98
1176.06
2017.15
2024.01
2194.78
1644.32
946
984.224
923.169
601.478
1126.31
686.717
972.983
997.836
750.021
1062.14
609.858
962.062
630.651
1000.16
1589.57
1712.13
1641.77
1471.12
1717.73
1402.64
1458.73
1828.97
1612.71
1127.34
1629.86
1530.34
869.127
719.366
1734.68
1247.37
512.433
945.345
966.008
1846.46
1577.07
1942.23
1697.84
1342.08
1638.9
1904.4
1310.69
1304.56
837.987
607.144
825.28
333.545
1209.01
1384.52
1756.25
1963.79
1939.68
1333.1
667.693
172.537
503.665
498.191
305.649
2603.74
2241.56
737.107
1349
1894.18
651.431
104.91
1563.1
885.199
1176.06
2732.95
2142.14
3966.32
4230.07
257.306
2175.44
759.525
608.288
621.912
3223.4
2034.06
1063.89
1348.57
2472.06
891.451
859.724
781.44
728.757
773.982
720.463
1731.73
659.144
826.999
892.101
1925.79
985.833
2002.42
797.862
768.297
786.145
2262.38
1015.44
2221.4
958.066
838.829
1039.87
986.307
957.976
1057.91
1058.6
1077.09
1058.27
1656.31
1288.87
1255.02
916.469
971.724
2956.96
2248.27
1727.28
1073.33
1648.97
807.619
1376.75
1849.54
1842.16
1407.46
1855.64
1527.91
1678.3
1024.69
1509.93
1706.16
1347.66
2211.39
3135.36
1434.05
3894.82
730.701
1905.12
1173.17
3060.95
1479.63
2078.39
1358.5
905.973
2654.21
1082.39
1021.95
699.221
764.617
623.32
1614.11
1039.26
2968.19
683.595
631.109
963.744
802.107
1549.47
712.44
856.718
2053.35
1720.88
1255.42
1239.89
1026.69
1247.86
1084
2911.73
1468.89
2942.93
939.142
999.404
1102.76
1244.85
1030.93
1287.71
1116.74
1236.64
1022.67
1667.51
1912
1794.38
1629.95
1448.7
1678.26
1939.82
878.784
1009.79
953.769
1035.67
658.299
1139.19
1619.03
618.193
1232.66
615.954
1944.58
1560.28
1278.88
683.78
1286.27
900.574
2002.68
1455.03
2071.81
2097.65
2267.08
1764.76
829.677
1421.86
1339.54
1126.76
1066.1
1368.14
1192.77
1183.92
1020.05
1261.79
1072.86
1351.62
1116.06
815.965
733.677
1503.79
1185.33
1932.42
1613.87
1334.4
1467.41
1630.58
1239.31
1442.49
1182.06
1521.75
1672.93
2065.93
1407.74
1230.88
1641.4
2525.08
2665.52
4602.17
1499.38
1966.48
1586.02
1930.51
1379.17
1973.21
1698.67
1412.76
1927.74
1646.64
4187.16
2159.11
2129.46
1128.33
1466.02
1137.18
1565.05
1518.03
3158.95
983.386
952.592
1782.82
1151.91
894.366
942.283
1136.43
867.634
921.385
1004.16
849.608
843.327
994.732
1688.39
2954.64
1974.4
2808.71
1326.15
1500.73
945.146
832.353
1392.75
1173.78
1895.25
1725.08
1831.23
892.572
978.331
991.64
926.958
707.136
764.182
822.333
2924.42
1206.01
3490.46
897.3
1179.35
871.51
890.422
1034.35
1030.62
694.146
1147.37
1448.06
1584.34
1739.83
1591.91
4091.94
1037.02
2592.25
1024.76
1200.06
813.994
839.14
1374.53
3013.17
1446.13
2885.65
1581.23
2883.81
3356.6
1941.29
808.008
1502.15
715.196
3126.24
2161.85
1636.21
1997.32
1448.6
1026.38
1556
3174.92
2648.86
2128.41
2142.97
1638.46
865.135
1210.52
1116.28
1076.13
1373.34
1777.67
1028.27
986.653
1060.43
1005.29
1092.01
1856.61
1440.56
1346.44
2193.31
1244.92
1141.66
1415
802.979
1213.44
1285.79
1207.13
1340
1417.05
1043.42
697.062
837.172
993.598
1182.98
1332.67
1190
904.851
1047.37
914.987
839.813
943.339
3484.82
805.945
870.331
794.627
846.873
965.356
801.385
3874.41
1295.38
981.116
918.769
1090.96
1025.52
2565.1
745.876
954.472
813.14
821.663
1081.11
1469
1282.07
1093.98
1075.57
1030.83
1756.29
1270.7
1357.07
1158.27
1119.45
1184.59
1318.38
1264.98
870.895
1885.9
1882.12
2294.74
3057.51
1414.05
413.605
751.036
2768.21
2950.89
538.937
1401.33
377.422
449.67
454.523
864.356
399.508
1302.37
SCALARS SignedDistance double 1
LOOKUP_TABLE default
63.6485
64.3097
51.4881
47.1605
50.0251
62.9581
69.9033
46.6113
70.1096
61.9073
71.1765
69.338
122.3
61.1912
76.7851
77.2164
63.3081
38.3289
43.3967
50.2592
75.6103
76.8863
58.6188
83.9888
49.1747
47.9698
64.1005
67.765
50.2525
63.2405
63.5923
46.3071
63.0788
47.3372
39.1649
42.1814
57.7005
50.8456
51.8212
62.6522
58.6681
68.751
79.3612
92.9628
75.515
64.2294
72.2154
74.3048
67.6811
69.7243
61.168
70.2609
64.915
66.924
78.7887
63.1652
69.2306
72.9235
54.0856
59.2082
55.1613
54.3731
42.2827
46.4752
40.8916
45.5356
60.4152
45.6857
49.6249
70.0641
67.7386
62.3301
87.2064
87.9767
90.2098
103.042
70.684
77.1988
72.8259
60.0273
66.2769
68.906
67.4751
61.66
52.6864
54.2297
60.3835
54.1515
47.5358
49.6399
43.87
66.6854
66.8151
73.7947
68.7073
73.732
66.6195
57.4806
54.7599
70.631
44.3851
46.7513
85.3812
54.9008
58.2222
45.0037
45.2436
59.1297
44.8984
55.5475
62.6767
75.0423
73.629
56.9043
61.8279
54.8501
59.4874
62.4262
33.8822
38.3654
44.5245
56.4145
46.9247
33.0593
51.1843
46.4164
56.5845
66.0519
45.5925
41.6941
44.9622
45.3514
65.9348
64.7504
66.0485
52.5123
58.4217
84.5085
64.434
70.2981
63.5102
65.1169
61.3536
79.1676
69.2683
65.1379
66.7776
46.5173
52.267
51.8005
57.9091
41.271
64.2234
64.0402
54.783
70.7012
51.2045
53.7886
46.2742
83.0991
75.0136
70.4264
68.7993
74.2241
70.2481
111.086
84.8602
93.5411
78.0389
81.9946
79.3522
66.8411
69.9556
71.1036
66.4908
68.117
61.9943
95.79
74.1611
80.6453
65.1257
65.7955
61.9773
71.637
68.5023
70.6233
60.915
65.8882
65.8458
78.6494
71.2504
76.5196
71.4478
67.9491
73.7658
73.3201
63.1678
68.555
67.0069
65.3041
68.1005
78.8427
72.9629
71.0524
72.0124
78.2413
66.4569
69.5158
70.3318
65.6957
67.6157
62.6034
74.1394
70.6245
73.0004
74.2205
74.1147
66.6234
60.9733
57.7581
56.6159
56.2644
51.4859
54.3353
45.9922
60.477
56.4527
43.0488
52.2972
45.442
56.007
61.5662
44.2504
40.9595
43.6991
39.3473
43.33
44.4503
43.0477
44.1054
40.5606
61.7117
51.8732
44.6406
54.5295
59.8066
46.0065
47.935
68.9887
52.084
54.959
46.6479
44.3633
50.7981
46.1538
46.2928
44.1267
47.8297
72.0247
73.9072
68.4518
67.9138
67.1668
70.5384
55.3148
72.1728
63.5316
44.6125
58.5004
55.6195
67.3338
76.3245
74.5389
84.9783
95.3545
75.2823
79.8061
111.178
104.566
95.9147
84.7225
76.9888
72.5208
70.2047
117.716
78.4061
73.2365
72.2987
94.0524
74.6446
78.8469
92.722
71.7984
66.8147
74.7357
78.6786
76.0009
77.5042
81.9474
61.2604
63.9566
63.6446
63.9825
58.9327
65.9123
68.1456
65.9752
64.6387
61.5969
72.707
67.475
71.8897
59.3401
65.1395
63.8293
69.8031
67.2514
71.6332
58.1878
58.5122
56.5373
56.2148
51.2482
54.1126
50.2388
63.6625
62.0371
53.9422
57.2038
57.0705
59.3199
57.4951
48.9134
48.8454
46.0556
47.867
47.6193
46.445
45.455
47.6299
49.8893
53.0207
50.4579
51.0788
69.3183
68.1844
70.5819
70.809
65.5322
68.1188
67.3039
80.714
79.8543
65.6765
68.9582
65.2955
72.8983
72.6333
59.9852
59.6669
54.882
74.8607
66.6332
72.2305
60.0471
61.7032
65.6521
68.2513
67.0668
65.3062
65.9196
71.6586
51.7218
56.849
63.9146
60.3167
57.7019
45.7365
44.5551
49.4329
45.9067
47.7393
43.3879
45.7656
87.2742
63.6833
64.4603
59.0022
62.1279
72.5764
52.4353
55.5216
49.795
47.6436
48.5724
52.9699
43.7754
46.251
46.1726
42.2382
44.208
43.8013
47.4036
58.4271
51.6664
56.6966
48.9713
62.9072
52.2364
45.9263
63.9565
65.0753
69.4074
55.5567
62.225
49.1896
67.8319
69.3455
60.2465
42.2312
51.4277
53.8517
55.6509
75.7065
73.4257
60.5765
61.1455
67.5476
48.8183
56.0741
46.5254
58.3821
60.0746
63.73
49.2587
56.6716
52.2505
61.4343
61.0734
60.6322
46.1038
43.8072
45.8495
34.521
33.0606
33.5004
44.1269
41.9198
42.7978
56.4705
45.8959
44.1069
75.1703
45.5756
50.1355
55.9536
48.611
76.8673
67.9354
41.0776
43.8627
37.8645
38.1375
33.5066
43.9745
39.2592
47.8195
76.6091
77.1291
76.2229
78.5478
48.1233
47.2414
58.935
49.2424
59.8489
54.3711
58.642
45.1695
43.1462
54.1147
47.9732
44.882
44.0006
47.383
47.6558
44.6856
46.3969
43.4282
46.3949
48.1508
48.2143
79.3483
77.6178
78.3848
54.488
66.5586
57.6077
57.4006
61.8199
53.5775
55.7927
49.3742
57.3409
45.8794
49.6387
48.7856
45.6877
59.4808
52.7061
57.562
85.4379
79.5646
81.0018
84.1104
72.8333
68.0175
56.2654
79.0346
85.9891
67.7356
60.16
68.1592
62.7337
60.9151
91.0126
75.1036
56.4894
61.5867
59.3125
56.4729
56.7819
59.9195
60.9586
69.7879
71.6541
83.6068
68.6494
66.6954
70.0738
66.0404
69.018
64.5452
65.5201
62.026
63.3932
68.1926
66.5119
69.1554
73.0289
69.5725
66.3406
47.1607
45.7328
47.9623
44.8769
47.6259
57.5752
53.86
55.81
53.0951
48.73
57.6305
49.5594
53.9589
54.3788
53.8449
48.9036
50.9288
48.5884
76.9836
49.2013
58.0223
65.5626
64.5257
41.4378
47.5247
43.0627
35.7853
38.603
66.4861
64.8614
65.2532
63.0552
55.7824
52.0948
55.7234
63.1911
80.6139
55.7291
67.9531
89.9546
83.1855
51.4419
59.8645
55.9164
49.6918
51.1851
88.3858
79.4291
96.6355
75.7092
64.9305
56.1507
62.1374
63.7036
58.991
55.4313
56.0755
52.7369
46.9636
63.3782
50.145
55.7465
61.063
57.8784
44.6997
43.5772
44.5114
44.0493
49.3741
51.0095
48.1816
45.7922
67.6478
71.8723
67.6836
69.729
82.2221
74.1665
70.9457
72.5161
76.5137
88.0717
65.9497
74.0039
72.1968
68.754
69.0761
89.4142
75.3942
81.4555
