# vtk DataFile Version 4.2
vtk output
ASCII
DATASET POLYDATA
POINTS 642 double
-118.531 228.115 -23.4989
116.82 236.578 -29.0576
-105.073 -203.406 36.962
126.426 -210.365 37.297
1.07107 -177.98 287.182
4.14643 76.4163 257.494
2.64101 -54.647 -82.2069
3.24458 188.099 -170.65
138.798 71.4401 -121.498
140.615 -4.2511 202.73
-112.396 68.8066 -115.863
-113.853 0.63379 203.623
-135.045 151.411 37.6629
-76.1751 45.3598 252.318
-22.2748 121.806 103.038
37.0231 120.927 108.683
0.460473 273.013 -46.9992
80.4036 286.952 -91.3268
-64.8962 279.097 -88.4077
-97.7352 112.39 -174.066
-167.874 192.101 -37.8555
-129.234 20.3764 17.7787
88.8089 49.7134 259.028
103.543 110.578 39.545
-102.059 -100.461 274.11
8.84337 -10.9106 329.59
-125.467 -130.546 -2.04415
-109.742 -135.926 193.408
5.8144 68.9372 -207.156
-77.4396 21.9379 -153.934
155.278 191.537 -51.8805
112.642 114.253 -177.294
136.739 -136.703 199.5
120.984 -101.365 276.51
91.1859 -222.678 238.255
-79.0059 -219.833 237.338
-0.129151 -214.906 32.6367
-75.8693 -195.001 -39.2928
92.0857 -196.108 -39.6713
89.9229 20.7482 -155.898
144.236 -140.603 -3.3551
142.79 -0.309685 59.5033
-138.542 189.176 -14.5958
-106.83 109.168 46.9297
-101.494 214.709 -15.8672
-101.418 22.6472 231.097
-89.4253 49.3181 201.085
-98.8995 40.0233 174.799
-12.3497 92.7273 219.549
-51.6809 72.1879 223.558
-37.5505 64.637 262.13
-21.4622 236.543 -4.12098
-44.807 271.001 -41.2789
26.9257 95.2412 218.613
6.32458 117.765 114.231
62.781 275.696 -41.8159
36.3504 235.935 -3.2837
93.3756 218.901 -16.0655
-41.0154 295.96 -65.1328
-83.5002 254.078 -58.3363
92.0128 280.123 -66.0339
56.095 296.644 -65.5169
-36.0513 238.192 -140.234
1.96875 281.695 -90.2926
45.6571 240.759 -142.929
-140.029 222.742 -65.2079
-153.127 208.866 -35.8037
-61.4716 147.269 -182.023
-89.9996 199.211 -125.652
-146.576 188.712 -56.6212
-138.616 176.076 -84.1832
-113.598 85.0247 -140.962
-166.61 186.655 -16.6897
-110.767 93.718 -3.23422
-159.195 189.522 -35.1928
-140.873 160.699 38.379
-115.334 -5.41048 136.873
76.0236 123.221 71.0824
132.336 209.874 -20.649
52.058 65.4558 264.696
62.9848 78.096 226.569
127.752 25.232 180.981
102.332 51.9639 211.614
117.659 22.7164 235.666
-39.2621 28.2161 295.5
5.38637 43.751 297.423
-109.615 -52.8969 241.18
-90.3067 1.55019 270.767
5.40835 -42.8637 323.617
-42.7367 -33.8898 307.025
-70.4627 -142.662 294.709
-127.66 -50.2108 95.2746
-113.215 -72.4111 209.087
-103.261 -54.6635 -45.74
-126.975 -74.3272 19.8641
-126.218 -153.414 115.833
-126.083 -134.306 27.5606
-120.883 -171.015 10.1773
-97.2663 64.0654 -174.56
-102.83 44.7704 -131.624
4.72686 102.243 -213.063
-62.6409 89.4309 -202.755
-60.3701 -24.2446 -142.856
-55.9037 39.0753 -189.397
2.58557 25.1585 -185.114
100.89 207.208 -134.539
70.0845 150.827 -182.371
149.651 218.291 -37.1541
144.731 231.511 -73.1783
139.937 82.2802 -143.474
145.258 170.52 -96.0814
145.988 142.123 -76.2304
155.691 -152.43 115.418
130.082 -182.796 218.176
99.4359 -205.847 182.039
133.634 -52.927 243.977
139.651 -128.192 240.687
140.027 -77.2964 208.458
62.4016 -208.505 289.241
113.81 -178.08 276.635
80.0399 -147.855 294.784
60.7076 -222.139 199.984
90.9857 -223.544 38.167
-54.1479 -207.024 287.261
1.53154 -217.109 235.279
-75.6491 -223.076 39.1924
-54.9548 -220.687 197.059
-82.1797 -205.719 176.987
65.6998 -223.36 -9.5912
117.018 -217.727 -9.71641
-98.7256 -212.142 -7.29428
-58.336 -223.153 -9.71516
65.6745 -157.946 -55.0848
0.222396 -187.087 -35.3537
-57.7279 -156.64 -55.3351
130.243 -179.897 -26.9436
139.68 -185.589 7.96858
68.8658 -16.5303 -149.933
89.9184 -147.337 -56.7674
126.294 -40.8355 -44.2144
130.237 -100.718 -36.9049
127.382 47.8265 -132.892
145.71 -139.784 27.5519
118.142 62.9815 -42.948
143.001 -88.4194 22.7511
143.922 -52.6507 100.21
140.978 1.40155 151.885
50.341 -26.3737 318.719
103.08 -0.326005 276.738
50.1873 26.2743 301.002
-108.913 -176.338 217.15
-101.332 -173.833 271.806
-112.583 -130.998 238.83
-75.5805 -140.853 -58.7122
-109.934 -171.123 -24.1634
-117.783 -96.2743 -40.2806
115.301 64.6469 -177.114
63.8789 37.2898 -190.527
65.9047 88.9889 -206.665
143.487 75.6899 51.4016
155.559 172.183 -32.9572
149.831 190.479 -35.9837
-128.999 211.51 -17.7029
-121.907 206.376 -15.5024
-111.813 221.997 -18.847
-128.201 136.865 57.3858
-132.366 181.155 -8.21631
-152.729 168.317 6.43368
-67.1961 193.469 2.83532
-109.246 193.411 -10.1244
-57.6338 118.5 76.0998
-109.171 10.9045 216.712
-103.49 25.3387 208.744
-109.194 12.5354 196.978
-85.4566 47.0874 230.191
-95.3274 37.7511 220.451
-91.4172 34.1151 243.072
-114.201 99.8639 110.742
-93.2981 50.8066 185.048
-107.687 83.6545 135.194
-4.23334 85.786 238.68
-24.5877 78.1885 241.987
-12.7229 71.489 260.97
-37.8941 86.9358 200.653
-32.007 83.8188 222.662
-18.9487 96.2693 200.828
-57.0622 56.0394 259.157
-46.3007 68.8751 243.528
-64.2507 59.6941 240.181
-80.8178 68.5467 151.884
-73.7847 60.6425 214.013
-61.5535 74.4026 182.896
-71.0315 236.027 -27.1808
-83.3624 246.076 -39.4845
-20.7467 204.025 21.0677
-48.3093 225.813 -11.617
-34.9535 276.62 -41.7905
-34.8833 257.455 -28.9586
-22.1383 256.512 -23.611
14.9685 86.467 237.715
6.02294 94.8381 220.414
31.1389 116.557 116.852
17.2724 98.0908 202.704
35.1048 98.1933 199.78
-2.65339 98.2538 202.921
-10.6572 118.645 112.234
79.9408 259.659 -40.303
73.0143 250.079 -30.6468
110.398 232.033 -26.1733
31.8383 256.087 -23.8907
53.4842 259.601 -29.9091
49.4076 278.212 -42.5233
61.1107 193.599 17.5016
54.4409 234.052 -10.2566
32.3009 202.84 24.869
-3.6485 201.193 31.385
13.9447 199.282 33.0452
2.05126 234.096 5.15562
-60.8225 271.732 -53.4548
-109.66 242.718 -38.1908
-28.2772 290.52 -57.0019
-42.0933 289.758 -58.2048
-72.1843 275.68 -72.0394
-52.8081 291.55 -67.2647
-52.02 296.043 -71.3825
103.315 256.905 -56.6898
76.361 284.817 -56.0328
69.8442 299.432 -72.0109
73.5735 295.008 -66.4914
87.9412 289.399 -71.7525
60.9651 290.664 -57.6771
36.5079 289.089 -59.5871
-17.6204 216.734 -157.998
3.04318 241.228 -146.474
24.5453 218.024 -159.212
-42.4655 288.496 -94.9453
-22.6286 261.734 -116.511
-49.7422 260.999 -110.07
63.7652 263.884 -110.547
29.9605 261.661 -117.415
54.1936 289.544 -94.9319
2.14573 287.636 -64.6249
35.1501 297.113 -72.928
-27.3683 299.843 -73.4544
-132.338 232.484 -40.2606
-136.215 221.453 -31.0853
-103.346 249.963 -75.5884
-119.56 242.856 -56.8867
-166.971 193.061 -34.3458
-150.175 217.525 -43.6469
-160.057 201.081 -48.5068
-33.3901 168.987 -175.498
-47.0703 200.878 -160.758
-92.9142 155.179 -151.404
-71.1609 177.085 -159.9
-83.2682 127.971 -183.311
-60.6586 223.884 -139.698
-75.4979 237.716 -105.109
-116.185 107.577 -92.6986
-118.287 123.872 -98.4341
-114.077 76.7607 -128.38
-158.741 187.17 -59.3163
-151.746 181.916 -78.5215
-166.58 191.706 -40.6008
-108.291 98.0471 -158.957
-114.818 134.087 -109.96
-108.098 138.312 -128.456
-124.095 218.253 -94.4
-123.373 184.459 -105.139
-145.256 197.693 -75.5375
-146.192 201.552 -23.4478
-169.545 192.35 -37.2882
-168.674 189.355 -26.6888
-160.309 178.654 -9.86707
-156.403 173.033 2.21993
-110.81 74.6567 -92.7366
-131.182 154.731 -37.1421
-156.043 132.077 -22.8976
-156.329 140.508 -26.0894
-139.877 58.7906 7.685
-167.169 194.428 -33.9792
-173.081 192.913 -30.0782
-107.963 17.2296 169.883
-113.823 1.13328 187.944
-144.979 150.709 28.6667
-98.4248 85.0299 106.867
-121.358 -6.17258 79.2248
-111.393 35.2331 99.3402
-129.139 70.2678 3.7656
-175.724 188.905 -27.0041
-170.769 173.873 -33.6592
-165.56 188.326 -15.0004
122.842 213.274 -17.613
131.355 219.402 -21.0409
55.5701 123.365 94.4506
101.868 190.687 -1.93544
129.207 192.445 -16.7488
119.373 197.015 -13.2688
89.6972 121.301 49.415
24.1814 71.9365 261.492
38.7537 80.8944 242.113
76.4505 63.1578 246.197
59.8195 71.3339 246.264
70.7895 59.2234 264.555
45.8564 89.1109 222.266
49.6726 94.4048 202.653
137.072 9.12097 192.737
126.397 23.3693 208.925
133.096 6.37288 217.756
102.359 61.849 166.194
116.417 40.6739 195.88
111.828 53.4619 148.548
104.673 38.603 250.074
109.832 38.8162 226.986
97.7546 50.4934 238.628
70.7796 83.2714 194.61
84.013 65.7866 221.478
88.612 72.7018 180.283
-14.1502 56.8183 279.817
4.22595 63.9394 277.909
-61.2612 40.7531 273.367
-41.0717 49.7562 279.434
7.11257 16.246 315.928
-14.4698 33.852 299.392
-11.9734 9.30624 317.145
-113.429 -20.9301 222.499
-107.672 -0.318246 235.489
-93.7954 -47.4846 269.916
-101.624 -22.934 254.345
-107.781 -78.8663 257.537
-97.1343 15.1956 251.247
-85.4812 25.7847 261.848
-1.57495 -114.954 292.16
-41.1171 -99.8831 296.417
-49.2269 -159.335 294.871
-6.88419 -13.4865 326.791
-15.3953 -36.2172 320.209
8.98918 -18.4864 334.413
-87.7452 -122.928 287.238
-63.8848 -87.1522 296.924
-78.9401 -72.4881 290.278
-67.4546 15.9721 284.876
-71.6955 -17.7238 291.121
-37.1709 0.958719 308.083
-114.153 -21.848 173.497
-113.705 -29.6435 205.492
-128.274 -25.7053 72.3735
-125.229 -27.2702 110.229
-112.822 -113.476 201.985
-113.948 -62.0653 158.787
-113.721 -93.6032 146.494
-100.211 33.2444 -101.148
-102.27 -0.135498 -44.9234
-127.42 -107.01 7.80689
-124.31 -78.2246 3.96948
-121.906 -106.826 -10.7756
-121.221 -25.8037 26.2737
-126.902 -24.835 40.6858
-104.883 -186.491 62.9523
-119.103 -170.421 32.7849
-113.341 -189.626 19.5932
-107.912 -149.555 103.936
-115.904 -154.007 56.6762
-102.691 -150.292 163.989
-126.179 -150.505 3.5048
-126.75 -150.756 19.4395
-127.128 -133.943 13.152
-127.83 -59.9521 44.4894
-127.457 -107.732 20.0818
-125.84 -92.5941 57.0407
-110.504 66.1818 -141.241
-107.028 55.7523 -125.648
-98.941 85.428 -176.774
-107.765 74.1469 -160.752
-97.6364 39.6381 -144.214
-103.082 56.1077 -155.624
-91.8163 46.5225 -167.127
3.02234 137.937 -195.513
-35.5489 124.911 -201.376
-30.9021 78.071 -207.497
-32.2961 96.6936 -210
6.74954 86.3453 -215.37
-65.6796 112.959 -201.273
-84.2862 102.091 -194.497
-68.3937 -33.4061 -117.836
-31.5946 15.8845 -169.6
3.07899 13.2228 -166.236
-69.5134 31.3522 -172.946
-51.6472 21.1328 -170.181
-53.4918 -9.53595 -151.493
2.89161 39.5858 -198.119
-31.3713 29.812 -190.138
-33.3821 46.7369 -201.407
-85.3473 74.467 -193.929
-62.1596 60.9223 -201.329
[...]
POINT_DATA 642
SCALARS Mean_Curvature double 1
LOOKUP_TABLE default
0.0507759
0.0481685
0.0290393
0.032336
-0.0219263
0.0174284
-0.00981818
0.00185484
0.0263119
0.0304992
0.0163589
0.0295166
-0.186549
0.0195417
0.00406645
0.00494127
-0.0149447
0.0393663
0.0310506
0.0160923
-0.397867
-0.0909706
0.0221722
-0.0082081
0.0211832
0.00911128
0.0172154
0.0061315
-0.00488543
0.00338753
0.0213728
0.0142866
0.007239
0.0188852
0.0184458
0.0217673
-0.00488117
0.0254742
0.0163962
0.00550246
0.00777003
0.00095267
-0.0109049
-0.0356978
0.00213249
0.0167495
0.0366641
-0.00322356
0.0191508
0.0032431
0.0194436
0.0124233
0.0156142
0.024044
-0.00548161
0.0293422
0.0129554
-0.00566887
0.02719
-0.0653342
0.0604815
0.0434555
0.0147501
-0.0061257
0.0182364
0.0243484
0.0232237
0.00893591
-0.00143104
-0.0382717
-0.0516455
0.0162752
-0.401742
-0.0278941
-0.0197291
-0.0380945
-0.00213409
0.00722107
0.0263344
0.0155024
0.00689953
0.00247717
0.00513774
0.00675248
0.0153022
0.0231946
0.00508215
0.0226295
0.00766466
0.00219054
0.0176082
0.00723017
-0.000632561
-0.027179
0.0122358
0.0543026
0.00572327
0.0161659
0.0247741
-0.00537193
0.0132815
0.00914454
-0.143948
0.0171527
0.0126684
0.00766513
0.00396081
0.0552963
0.0333005
0.0323323
0.0227337
-0.00862194
0.059176
0.0257531
0.0295997
0.00884714
0.00797625
0.000628762
0.0403069
0.0214431
0.0109166
0.00615837
0.0114957
0.0357458
-0.0196103
0.0254807
0.0054812
0.0327498
0.0284668
0.0407208
0.0385467
0.022106
0.0168937
-0.0210349
0.0227335
0.0282627
0.00847486
-0.0141012
0.017613
0.00118531
-0.0437254
0.019343
-0.00120652
-0.0146467
-0.00736709
-0.000421037
0.0154596
0.00952176
0.0107141
0.0107996
0.0192794
0.0306156
0.00274619
0.0141863
0.0180443
0.0307581
0.0238008
0.0179831
0.0106303
0.0535458
0.0910695
-0.00228235
0.049294
0.00343931
0.0254272
-0.00881522
-0.0160974
-0.113724
-0.00645616
-0.00330562
-0.00373001
0.0163223
0.00820095
0.00129684
0.0188134
0.0206509
0.0234289
0.050186
-0.0347148
-0.131377
0.015671
0.00660456
0.0096578
0.00786247
0.0124387
0.0191021
0.0190749
0.0112184
0.0110531
-0.038009
0.0103525
0.00491477
-0.00395161
-0.0161443
0.0016312
-0.00363113
0.028753
-0.00203438
0.010138
0.00772694
0.0190366
-0.00275296
0.000350006
0.015227
0.0093404
0.00342831
0.00732622
-0.0027874
-0.00402346
0.00171779
0.00657076
0.0183739
-0.00266422
-0.000297069
0.0083856
0.0162306
0.00744946
0.0168313
0.0303048
0.0716957
0.0568381
0.0231336
0.0543193
0.0157034
0.0806504
-0.0501373
0.0238452
0.0700539
0.0366875
0.0923952
0.0188986
0.0234363
0.0082591
0.0176254
0.00933434
0.0334994
0.00254762
0.00820712
0.00599578
-0.000721965
0.0254812
-0.075405
0.0559946
0.0697239
0.0307342
0.0105823
0.0170004
0.0496446
0.0290793
0.053036
0.0315448
-0.00189656
0.017253
0.00977357
0.0106707
0.0218409
0.0176152
-0.00816716
0.00121586
0.00347316
0.0150026
-0.0837701
0.0972362
-0.2836
0.0174932
-0.00138425
0.00234552
0.0219521
0.0125323
0.0177842
0.0120437
0.021863
0.00353534
-0.0734182
0.137291
0.0010261
-0.0266658
0.176892
0.0185067
-0.0986918
-0.0463176
-0.338399
0.00182305
0.0173831
-0.140792
-0.0439735
-0.00406865
0.00209134
-0.0169533
0.171302
0.0300848
-0.135229
0.0220262
0.0612253
0.0079836
-0.00527365
0.0102292
0.0152101
-0.00761614
0.00697918
0.0096344
0.00982109
0.00777718
0.0270913
0.0194512
0.0193278
0.0196219
0.0130094
0.01422
0.00509236
0.0107841
-0.00143246
0.0258998
0.00568499
0.0167321
0.0068046
0.00632247
0.00621653
0.00704193
0.028124
0.0161213
0.0217248
0.0139154
0.00527961
0.0215204
0.0177766
0.0161556
0.00414465
0.010033
0.0177669
0.0164802
0.0190532
-0.00562577
-0.00204758
0.00234647
0.0240855
0.0124548
0.0680955
0.0162723
0.0157406
0.0144146
0.0142999
0.0131316
0.0118294
0.000604173
0.000452726
0.0165423
0.012362
0.00345354
-0.00319704
-0.000522411
-0.0191014
-0.00390536
0.0210083
0.00621317
0.00138397
-0.0121762
0.0301178
0.00305579
0.0323513
0.00615413
-0.0154985
-0.0384299
-0.0651708
0.0314728
0.0241994
0.0125252
0.0038327
0.00458889
0.00218782
0.0237554
0.0158567
0.0146438
0.0296698
0.00456718
0.0203332
0.0196315
0.00183313
0.0108341
0.00391884
0.0211743
0.0363307
0.0264894
0.0328369
-0.0321305
-0.00829376
-0.00157818
0.0200936
-0.00274796
-0.124892
0.0175868
0.0249541
0.0210947
0.0357574
0.0276795
0.0274619
0.00998747
-0.00168519
-0.00311844
0.0150643
0.0199379
0.0154766
0.00887189
0.0329525
0.112724
0.0214224
0.0295501
0.0503382
-0.0107606
-0.000932523
0.0555313
0.0351201
0.00963955
-0.00105359
0.00398827
0.0175296
0.0287679
-0.00298146
0.027008
0.023282
0.030408
0.00182462
0.00335913
-0.0206844
-0.0048989
0.0218123
0.0197745
-0.046917
0.0287941
0.0108648
0.0343362
0.0245241
0.0112424
0.00216431
0.0296303
0.0208254
0.000767518
0.00228629
0.000886423
0.00656257
0.0362706
0.0184424
0.00318635
0.0288648
0.036622
0.0289309
0.0082924
0.0172782
0.0193779
0.0202324
0.031869
0.019278
0.0736286
0.0301444
0.0208491
0.0264038
0.00973668
-0.0198485
-0.010275
0.0498391
-0.0133284
0.0269988
0.025574
0.0318496
0.0176616
0.024439
0.0248876
0.100159
-0.0299159
-0.0120796
-0.0119936
0.0121959
0.0348981
0.0435062
0.0269693
0.0473234
0.0572475
-0.0154031
0.0225444
0.0334754
0.0165022
0.000575948
0.0391622
0.0324453
0.0213945
0.03542
0.0376409
0.031437
0.0395755
0.0355892
0.00623169
0.0185225
-0.0139073
-0.0210062
-0.013211
0.0170038
0.0247176
0.011566
0.0217995
0.0329985
0.010425
-0.00604929
0.0357373
0.0211256
0.0476359
0.0347277
0.0273379
0.0338096
0.000359178
0.0365519
0.0213703
-0.0284978
-0.0634042
-0.0425862
-0.10808
-0.100011
0.00228993
0.03379
-0.010721
-0.127599
0.0356472
0.027348
-0.0943387
0.00579196
0.0128563
0.113438
-0.0271449
0.0237385
0.00320571
0.0171086
0.0456335
0.0603909
-0.00946414
-0.0759495
-0.0144321
0.00830215
-0.0052324
0.00249816
0.00315169
0.00530994
0.00837603
0.0141023
-0.00011014
0.0234333
0.00303057
-0.000244672
-0.000979517
-0.00217487
0.0322534
0.0106471
-0.00154733
-5.83763e-05
-0.00290072
0.0119911
0.00189509
0.0243703
0.0332142
0.0107058
0.0232088
0.0142144
0.00934284
0.0171186
0.00369847
0.0181972
0.00486762
0.0203555
0.0232048
0.0116116
0.00902666
0.0249312
-0.0197875
0.013516
0.0135404
0.0217989
0.0197501
0.0255295
0.016789
0.0240294
0.024857
0.0322196
0.0109701
0.00284813
-0.000766424
0.0137669
0.0217253
0.0242457
0.0252495
0.0092865
-0.1213
0.0290224
-0.0295315
0.123194
-0.0425306
0.0238331
0.0135544
0.0166483
0.0318612
0.0205605
-0.12945
-0.0410102
-0.0734941
0.147366
-0.0321547
0.024821
0.02208
-0.00135903
0.0247113
0.0175852
0.0165147
0.0308006
0.0246448
-0.00619201
0.0150779
0.0218242
0.00118877
0.0219829
0.008699
0.0269147
0.014617
0.0315044
0.0144108
0.0234843
0.0164093
0.0282904
0.00880813
-0.0412489
0.0127194
0.000483243
-0.0296902
0.0189215
0.0160723
0.0144639
-0.0135456
-0.0425763
0.0353022
-8.49569e-05
0.00902784
0.012521
0.0616915
0.215459
-0.175822
0.0475863
SCALARS CoVolArea double 1
LOOKUP_TABLE default
326.657
447.482
653.597
671.79
1601.92
372.341
6069.87
1430.53
176.794
362.806
540.453
326.603
331.195
470.117
3186.55
1753.97
1166.42
849.318
917.317
916.797
67.1421
1381.1
455.262
2539.57
1018.41
366.152
435.378
1499.77
959.54
2621.18
222.395
1089.55
1442.99
1199.99
902.489
775.984
3747.08
468.371
539.05
2746.4
573.964
1927.06
353.057
3937.92
828.217
390.131
759.168
1164.73
402.255
657.534
527.1
847.163
580.497
427.941
2080.03
379.442
930.479
1167.95
229.213
645.735
335.841
280.231
1112.94
1492.33
1239.81
832.8
266.29
1172.28
1743.97
1265.17
725.925
700.895
75.3785
5072.69
281.101
4496.4
1559.29
2311.25
156.53
577.382
566.317
778.235
729.838
566.265
795.715
642.64
817.061
875.487
1888.62
1355
991.426
1994.06
1336.54
2163.45
698.931
2426.28
1207.08
412.958
424.295
404.954
1067.33
692.657
778.847
573.106
774.572
1632.37
1328.71
265.339
852.172
513.145
1002.36
470.758
2669.16
535.016
972.178
1019.42
507.808
1056.35
987.689
953.324
1289.79
2183.84
1229.34
977.938
1530.82
879.92
1745.8
860.489
897.119
460.92
412.371
758.684
1366.57
1216.67
1010.11
467.179
345.875
958.699
787.685
1593.18
1112.1
585.567
1667.35
4118.51
840.6
2515.24
945.444
1198.44
979.844
776.277
566.78
765.178
467.742
839.999
541.572
1068.61
501.623
686.283
726.207
1222.74
879.134
253.859
275.991
297.06
400.593
1869.81
1337.8
500.271
3176.92
2407.49
4713.78
392.803
481.589
411.001
459.618
392.879
374.967
1051.2
566.91
762.553
429.013
501.372
488.741
1979.04
484.112
1010.77
442.149
448.202
486.666
2119.08
845.124
2524.67
884.016
689.91
2213
1328.26
471.566
647.416
977.217
488.399
372.645
1726.72
1097.78
766.849
983.15
1641.76
628.766
709.852
494.175
1192.58
540.314
668.564
2511.61
1128.59
1654.28
1462.21
1743.85
1192.58
598.511
551.073
549.896
273.826
589.515
300.308
357.628
689.263
449.023
406.428
185.922
397.166
293.765
646.24
1250.56
1349.99
1307.14
917.32
1400.88
1049.42
1091.22
1540.59
1073.28
506.39
868.752
797.551
420.251
349.974
1206.46
702.297
129.234
401.682
398.655
1592.1
1171.01
1541.34
1333.32
913.649
1326.84
1626.14
1369.03
1044.36
520.452
256.796
643.123
126.257
820.027
958.296
1309.06
1462.27
1430.42
746.723
404.153
42.8258
210.041
287.041
120.315
3367.61
2697.44
604.651
1258.73
1533.74
583.965
37.073
1661.14
665.191
1030.06
2706.58
2251.29
4715.94
4571.12
146.974
1852.29
459.983
386.569
203.175
2718.86
1818.91
901.849
903.653
2175.95
596.174
562.954
468.534
435.588
417.303
432.24
1281.47
365.326
545.452
537.845
1736.32
767.745
2037.06
443.328
493.998
472.745
1811.39
740.508
1810.46
609.009
509.555
632.176
620.021
631.376
705.124
661.428
671.642
665.536
1205.22
880.21
812.999
535.308
560.39
3175.97
1992.62
1553.63
631.411
1159.8
351.178
934.71
1385.95
1376.4
931.831
1396.16
1072.36
1543.86
782.433
1198.22
1417.12
1315.71
2116.83
3191.42
1680.03
4779.65
442.059
1847.79
953.321
3091.37
1044.45
1730.72
998.553
554.029
2649.58
979.267
1062.63
341.373
456.718
319.667
1256.81
744.484
2854.98
334.281
479.23
523.779
403.504
887.122
365.19
506.111
1848.29
1360.54
856.789
796.383
608.038
807.761
605.478
3775.06
1135.63
3687.47
630.227
605.998
860.141
854.743
652.232
868.61
595.256
735.08
545.287
1291.88
1679.62
1460.53
1267.93
1030.51
1279.1
1578.71
387.656
457.588
404.616
486.802
208.647
576.143
1156.42
215.556
638.803
224.391
1600.04
1051.97
859.752
347.95
783.083
433.818
1512.49
820.407
1619.32
1874.51
2376.15
1034.29
573.239
1389.01
1517.87
670.195
728.077
767.132
752.793
811.887
699.461
752.382
679.436
945.487
994.026
594.476
485.492
980.58
729.833
1822.11
1001.03
798.132
924.186
1251.74
802.785
940.626
611.162
873.77
967.747
1120.14
825.307
728.501
1037.11
2610.67
2483.17
5968.93
971.162
1401.28
1006.9
1492.77
838.17
1534.29
1124.31
835.834
900.563
1019.47
5271.16
1561.39
2018.73
657.845
719.079
627.057
895.779
858.338
3594.27
558.08
486.974
1335.66
781.47
457.269
515.222
670.446
442.037
484.111
532.962
420.189
420.77
607.253
1257.25
4233.65
2188.58
3909.83
883.883
1153.58
607.079
461.877
1044.63
738.38
1313.27
1205.03
1296.68
407.089
498.263
501.506
450.647
412.1
351.008
473.085
4064.95
1462.86
3929.88
495.95
969.894
453.843
461.214
765.802
880.517
398.191
725.195
967.83
1221.78
1126.68
722.386
4378.77
581.732
2720.52
656.047
722.74
450.118
624.384
1538.29
3259.97
1561.77
2851.43
1316.81
3033.58
3930.53
1640.48
483.676
1357.32
422.194
3228.96
2089.85
1420.41
1731.56
1060.46
661.518
1196.28
3175.48
2447.03
1662.46
1765.56
1147.12
417.78
834.835
685.343
696.815
997.875
1312.45
696.096
600.278
727.231
637.701
655.204
1367.07
977.25
861.168
1973.81
732.076
779.284
1281.55
582.896
725.417
790.479
737.882
788.153
825.674
729.862
533.949
668.433
615.052
684.579
724.941
633.442
484.66
1041.28
503.786
364.792
355.81
3736.88
403.888
504.666
423.246
441.8
525.247
922.94
4172.85
667.65
752.284
565.341
659.299
640.744
2582.81
351.207
591.382
467.379
400.155
605.238
1183.4
881.739
712.948
636.043
693.136
1417.08
790.932
942.881
707.431
709.917
693.192
827.596
741.637
588.952
1524.73
1416.58
1751.89
2714.65
1561.41
143.258
605.68
3782.33
3306.39
150.524
1305.39
220.616
136.057
140.609
322.473
102.907
853.051
SCALARS SignedDistance double 1
LOOKUP_TABLE default
23.4695
23.8102
17.6158
15.012
23.4044
21.5183
24.0204
15.1146
24.2925
22.1101
24.414
23.6705
91.0329
19.6783
26.212
27.8688
26.2847
10.0118
17.273
19.1922
46.6874
39.0419
19.7631
40.0886
16.3433
17.2687
21.0634
24.7304
17.9627
23.9249
22.6575
16.1645
23.3217
15.5873
14.9075
13.3468
28.8503
18.5405
19.2466
24.8986
20.7691
24.2399
41.1722
58.5324
30.9293
22.7651
24.6552
26.935
22.8283
23.6195
21.221
23.7454
22.9676
23.9968
27.2464
21.5069
23.7645
27.0742
18.6154
25.444
20.4552
18.5794
14.6344
21.02
13.2052
15.3221
28.4895
16.2592
20.2962
25.6328
29.6208
23.3977
60.6543
52.8812
41.1445
94.1677
25.1489
30.135
26.0066
20.952
22.8738
23.8554
22.743
22.3029
17.4958
17.8566
20.6299
17.141
18.5219
18.99
15.7584
23.3384
23.0286
30.7065
23.7631
58.5643
22.7531
19.0139
19.1434
25.688
14.2453
17.4327
59.8798
18.5544
19.9531
15.6747
16.1609
22.6037
14.8213
21.3732
28.7232
39.5301
60.6462
20.8075
29.2526
18.4173
21.1364
21.5259
10.715
13.2658
15.8382
20.4845
16.485
10.1761
25.493
15.9953
21.316
33.4915
16.285
13.0772
13.5294
16.0786
25.7288
34.8285
25.9846
17.5843
21.1455
52.1746
27.3801
29.0361
24.0335
25.2291
22.238
33.9321
24.5748
23.9008
22.4942
17.6221
17.5807
18.9272
20.4217
14.2393
22.3766
29.2794
18.453
36.9287
16.8772
18.6031
16.9596
49.1636
35.8184
23.5178
29.5401
31.8155
27.9792
92.2178
45.4632
73.9121
28.7995
35.7707
31.6036
23.3754
24.365
24.2933
22.419
23.0145
19.6704
64.2056
28.7061
54.3872
22.6361
22.4316
20.7871
25.1147
22.6211
25.0419
20.2439
23.0709
23.7846
29.5779
23.7884
27.0626
24.6987
23.4741
26.4009
26.7209
22.0134
24.7336
25.1015
22.8813
23.5895
27.0822
26.974
27.0551
27.1285
27.3257
25.2522
24.5897
23.4498
23.8021
25.1574
22.2813
26.2599
24.5157
25.9608
26.8681
27.2308
22.3779
23.315
21.4139
18.7224
18.3574
24.4983
16.4521
16.7948
27.3726
17.9627
17.6616
17.2344
17.0602
18.3242
24.2916
15.6762
12.7631
16.3652
12.3949
19.1166
16.3313
17.9279
18.5833
13.2736
27.8993
24.8673
17.2159
17.7909
20.5851
23.4621
16.4516
47.1242
20.3991
32.9535
16.9521
17.1242
18.9592
15.4584
16.1124
14.9511
18.8348
27.368
32.8739
23.9025
37.0202
35.947
44.4313
18.2989
33.1592
28.6154
13.6206
26.7043
25.295
35.3099
49.5994
53.9369
62.2459
71.0894
28.4778
39.9976
76.2679
70.508
64.615
47.0863
54.3517
25.5195
23.6412
91.5505
41.7156
26.5769
24.5197
62.2463
59.9879
59.0633
59.0749
29.0335
25.7084
25.8184
28.5208
27.8515
29.5993
37.2203
20.5113
21.4893
21.9261
22.4418
19.6114
21.4845
23.3127
22.0768
21.4315
20.0723
25.0851
23.0085
24.4441
19.5751
22.5318
21.0683
25.0882
23.2273
26.2569
19.4164
19.8368
18.7201
17.7144
17.2011
18.5955
16.3011
23.2273
21.0551
18.6187
20.4564
19.7948
20.427
18.6918
17.8606
17.4878
15.939
17.8216
17.908
17.1133
14.6035
18.0063
16.4993
17.2277
16.7368
18.154
23.9928
23.5342
23.9665
25.3823
22.6222
23.7639
23.5391
35.371
35.9701
23.0905
24.128
21.8652
27.2065
27.5595
23.221
20.4441
20.5722
40.7065
25.6997
35.5892
21.7957
22.391
22.7988
23.5239
23.1383
22.364
23.8712
25.6135
18.703
18.7355
24.1592
21.8887
18.5645
15.3143
15.7524
17.681
17.252
16.3676
15.9327
14.5981
67.0153
25.5871
23.3696
21.5859
24.1749
45.4823
16.8549
18.8761
16.0755
14.9763
16.0106
16.4218
16.2871
18.0704
18.0031
13.8294
14.0274
14.8821
15.6358
19.3447
17.9212
21.9028
17.073
22.2118
27.8462
24.1491
23.6544
24.9827
23.7747
21.6354
27.0568
16.4484
24.3564
31.3777
22.3568
14.4738
19.2619
24.4414
21.0974
44.0136
46.5678
20.7053
22.6373
34.7957
16.7215
20.3416
17.5221
21.403
21.2843
22.0587
19.039
20.8248
18.7003
21.2282
21.0695
20.982
19.0767
16.0296
16.0029
10.451
10.5607
13.7248
15.1545
13.9026
13.273
20.7061
18.7161
15.1223
51.7376
15.1377
18.4687
24.0966
16.9723
51.8321
26.8914
15.3454
23.209
12.3968
13.1733
11.7181
18.5134
14.3131
15.4156
53.1055
47.6165
41.1643
56.7696
16.8954
15.4357
28.7891
18.5605
26.0643
19.8799
29.4432
16.4688
13.0951
23.2088
16.4932
13.8256
15.6597
15.0676
15.3542
14.7411
14.9635
14.8826
14.1076
16.7072
16.6303
29.3188
35.0009
29.1529
19.9893
29.1776
19.7188
20.1779
23.1711
19.5514
28.9092
16.0724
24.9273
17.8338
20.1098
16.6636
14.0107
21.3628
20.2921
19.0677
59.0962
52.057
65.4049
59.2791
41.1871
28.3301
21.7456
31.3323
44.5455
25.0271
19.8589
33.3716
22.5757
22.9591
51.6072
42.855
19.3893
20.9336
19.2021
21.1406
19.291
21.3787
29.5966
41.8358
24.8353
45.3085
24.6694
23.5816
25.5283
23.6884
26.0079
22.2354
22.4738
21.5658
21.863
24.4276
23.1005
26.6184
26.5889
24.8044
23.3568
17.2575
14.7163
17.387
15.0908
16.7191
19.7862
16.7501
20.4494
18.3078
15.9208
19.3831
16.166
18.9099
18.3913
16.6499
17.3901
18.158
15.8219
45.6052
17.9505
23.1102
24.82
22.6358
15.7806
15.7462
14.1648
11.7133
14.9573
23.2678
22.3598
22.4903
22.6862
21.6865
18.7915
21.9189
22.3586
54.5117
21.5709
29.7188
61.8187
70.8468
20.5743
21.1024
18.4773
15.9221
16.3273
59.4125
54.5397
59.2898
46.5461
22.9192
18.6015
20.3913
21.6454
20.3684
17.7514
18.477
18.4085
15.6757
23.5805
17.2894
18.8741
23.4542
20.3373
15.6131
14.1544
16.0795
15.627
17.4588
16.4308
17.4282
14.6187
22.3573
35.1337
23.1188
23.1665
39.6534
36.285
25.491
24.9399
30.4407
65.3013
23.7856
28.2183
24.2168
22.7145
23.2622
54.3541
36.6423
47.5848
