# vtk DataFile Version 4.2
vtk output
ASCII
DATASET POLYDATA
POINTS 642 double
-197.06 355.185 39.9965
197.1 360.758 38.5967
-200.866 -305.144 50.2643
207.258 -311.259 50.7703
0.90569 -198.391 408.967
0.943716 208.754 370.393
1.2694 -155.246 -246.717
0.751023 245.85 -287.523
308.622 38.7624 -150.381
303.554 22.7102 254.102
-297.636 38.2939 -146.924
-292.918 23.5117 249.547
-276.192 208.79 141.186
-176.439 133.105 355.627
-96.3574 292.045 209.279
99.2938 295.507 212.719
0.979005 420.327 35.8603
125.209 368.163 -152.171
-120.72 364.225 -149.863
-190.707 152.1 -267.867
-306.043 225.503 -66.8325
-324.5 31.5156 49.5912
181.121 135.335 360.068
265.845 203.847 142.418
-193.127 -105.218 376.433
1.70721 23.5519 458.937
-288.273 -163.236 -57.6416
-290.469 -168.934 189.368
1.35453 38.1828 -343.708
-177.886 -68.9432 -253.342
309.464 230.132 -70.8599
194.704 153.965 -270.897
302.421 -173.751 191.194
199.436 -106.601 380.628
130.917 -316.071 272.742
-128.685 -313.79 270.977
0.436621 -359.8 50.414
-119.524 -288.826 -134.9
123.546 -291.497 -136.809
182.298 -70.8311 -256.109
296.975 -170.769 -60.2069
335.06 23.9776 54.4488
-249.849 289.467 93.6933
-200.487 257.703 176.502
-155.046 342.777 122.248
-245.862 80.2792 312.212
-231.834 165.87 266.312
-285.597 110.08 213.237
-52.2828 256.606 306.663
-142.136 221.316 303.126
-90.8938 177.388 375.677
-59.4329 378.017 120.978
-100.863 406.665 36.8054
55.1539 257.583 307.257
1.41162 305.666 223.13
105.71 410.136 37.0418
62.881 379.19 120.496
155.321 346.787 121.114
-66.5298 423.8 -58.0277
-165.883 378.37 -55.1286
171.766 386.484 -57.0723
69.0457 425.781 -58.5036
-63.3982 315.981 -230.309
0.89196 381.751 -161.613
65.6697 317.213 -231.404
-228.057 305.366 -114.855
-264.913 304.868 -14.7091
-101.717 204.607 -291.47
-163.152 267.395 -219.354
-313.839 143.984 -108.533
-263.283 200.427 -172.633
-257.505 94.401 -215.828
-309.749 229.771 39.7883
-313.48 49.7527 -49.5628
-339.951 144.974 -14.8481
-307.854 144.773 90.8881
-312.661 22.6102 159.42
194.086 257.251 178.795
251.332 292.023 92.8429
94.4271 178.546 378.265
146.165 223.697 306.328
294.689 110.32 215.964
237.34 167.615 271.269
252.924 81.249 316.668
-94.3802 84.0318 422.766
1.43462 123.556 426.866
-255.573 -43.2309 320.648
-192.761 23.3148 380.614
0.406089 -82.4794 445.002
-98.3575 -39.3374 432.723
-106.4 -160.231 411.97
-314.028 -71.4372 116.182
-299.663 -81.237 226.559
-288.834 -69.0694 -103.458
-318.412 -76.5093 -4.73525
-251.197 -237.167 124.823
-299.651 -173.112 48.117
-257.704 -244.654 -8.06649
-198.369 36.7984 -279.279
-250.443 -17.4733 -209.04
1.08204 139.7 -333.901
-102.655 98.4804 -327.465
-95.7816 -119.568 -264.968
-100.05 -23.4381 -316.564
0.749514 -61.853 -315.302
166.911 270.762 -222.644
103.875 205.989 -293.352
266.009 307.325 -17.0775
231.517 310.574 -117.245
265.74 94.2092 -219.971
265.92 202.979 -176.53
316.878 138.608 -112.231
261.09 -243.203 126.168
238.554 -258.81 234.564
176.106 -323.222 174.544
262.72 -44.1258 324.878
272.951 -149.919 295.681
312.812 -83.6591 229.478
71.2472 -271.879 359.11
177.042 -224.438 349.356
108.958 -162.749 413.566
69.143 -360.63 178.555
112.306 -353.423 49.543
-69.2693 -270.43 357.492
0.72296 -328.302 281.334
-108.47 -350.851 49.8491
-67.4738 -359.166 178.39
-170.77 -318.769 173.618
70.2014 -348.323 -48.6805
173.616 -318.193 -48.7609
-168.437 -313.332 -47.1707
-67.8774 -348.024 -48.5822
66.0625 -237.422 -201.473
0.591867 -299.335 -142.605
-63.4018 -237.033 -201.439
226.868 -244.925 -106.912
267.832 -250.683 -9.64069
98.1851 -121.552 -266.405
159.065 -201.339 -196.61
296.994 -67.4427 -104.115
250.395 -136.331 -155.999
258.046 -18.5245 -213.049
309.306 -179.756 48.2527
323.826 43.6983 -56.2991
331.876 -79.0657 -5.41328
324.458 -73.3776 118.052
327.03 23.5359 163.727
100.884 -38.0545 437.568
198.151 23.8915 386.183
97.6569 84.3938 426.856
-231.371 -253.351 234.777
-173.433 -221.197 345.549
-264.132 -148.943 291.054
-154.217 -198.187 -193.406
-219.134 -240.02 -103.277
-244.923 -131.601 -152.874
203.426 36.7225 -282.887
101.774 -23.6438 -318.299
104.018 98.6197 -329.921
313.052 124.079 96.5635
337.198 145.695 -18.4169
310.312 233.491 38.9633
-227.099 324.317 68.0637
-205.589 319.858 109.672
-177.067 352.335 83.977
-241.47 236.839 161.384
-228.049 282.528 132.386
-266.36 251.088 116.543
-128.847 328.209 153.37
-182.112 309.736 143.503
-149.55 274.536 190.899
-272.35 52.4818 283.016
-270.165 95.9048 264.079
-292.069 67.9166 233.16
-207.794 150.928 313.371
-240.859 125.168 291.804
-213.662 107.374 336.61
-274.842 161.656 174.085
-261.516 139.897 241.154
-250.361 184.548 207.612
-26.2869 235.479 340.218
-72.1079 220.837 344.071
-44.4787 194.755 376.071
-120.513 254.061 270.284
-98.6189 241.315 307.248
-75.7349 271.314 271.464
-135.135 156.72 368.779
-119.077 202.004 341.165
-160.694 180.606 332.443
-215.204 212.216 230.018
-190.098 196.147 287.527
-170.828 234.824 253.083
-128.85 377.129 82.0341
-148.244 383.434 37.9172
-80.7661 344.236 156.829
-105.763 363.458 121.7
-53.7736 418.807 36.5253
-79.8437 396.588 81.3129
-32.4687 404.244 80.3749
28.449 235.813 340.693
0.965335 260.829 310.897
52.0019 303.727 221.374
27.9007 280.677 276.267
79.3337 273.83 271.716
-25.1792 279.815 276.314
-47.6487 302.24 219.635
151.868 390.07 37.3911
132.103 382.548 81.8829
177.335 357.269 83.0839
34.8 404.38 80.1753
84.0343 398.997 81.6209
56.5662 420.049 36.4783
128.833 329.598 155.133
108.709 367.414 121.437
83.8773 345.429 158.22
-28.3393 350.504 165.455
30.1396 349.933 165.622
0.61601 380.198 121.758
-134.701 399.827 -9.74644
-183.381 369.993 -7.60466
-33.7409 429.423 -10.3423
-85.0182 420.755 -10.5755
-145.075 375.82 -102.859
-117.341 407.135 -58.5584
-95.418 399.385 -105.186
185.727 377.278 -9.7882
140.368 405.589 -10.2542
98.8868 402.37 -106.492
122.417 411.339 -59.3503
150.579 381.334 -104.85
88.7875 423.644 -10.721
35.9592 430.6 -10.5113
-31.6255 283.387 -262.605
0.730678 319.92 -235.219
33.2716 283.885 -263.195
-63.5361 379.091 -159.971
-32.984 352.961 -198.877
-93.3025 343.864 -192.288
96.7725 346.399 -193.91
34.7769 353.301 -199.017
66.0541 380.735 -160.722
1.01955 427.269 -59.0664
36.0386 410.309 -112.097
-33.9363 409.078 -111.58
-219.841 343.242 -34.7377
-233.931 333.162 12.1977
-175.612 337.497 -133.346
-198.993 344.25 -85.9471
-288.539 268.565 -41.074
-249.595 307.653 -64.685
-270.919 268.779 -92.3654
-51.5618 227.104 -292.28
-82.8598 263.78 -264.488
-177.968 210.785 -246.103
-133.312 238.258 -258.603
-148.44 179.353 -283.586
-114.606 295.071 -228.059
-142.956 318.535 -187.363
-304.717 89.7831 -128.284
-287.165 119.13 -160.916
-281.185 65.4417 -182.276
-289.288 214.509 -122.842
-294.989 172.382 -142.302
-318.067 183.633 -91.1335
-227.167 123.684 -244.979
-259.534 148.982 -193.808
-226.439 176.598 -221.438
-199.114 290.374 -169.39
-216.842 235.622 -198.916
-249.413 255.268 -147.177
-261.135 301.066 40.3079
-314.713 231.885 -12.1829
-291.37 269.231 12.6908
-282.644 262.74 67.6595
-296.772 222.36 91.2615
-308.596 45.2696 -104.835
-318.415 99.8274 -79.2807
-332.78 106.069 7.32097
-333.507 108.259 -29.4338
-320.68 45.9027 3.9508
-331.722 146.581 -58.2792
-334.182 183.233 -40.8931
-303.433 67.6277 190.896
-306.902 23.5746 207.721
-301.978 177.519 116.855
-294.749 123.742 151.45
-321.49 22.1095 102.171
-308.422 74.7942 132.218
-317.454 89.8385 65.7084
-334.965 186.576 11.4529
-333.127 148.951 31.7007
-322.741 186.134 65.2237
206.318 323.052 108.832
228.227 327.527 67.9265
147.328 279.025 197.072
180.741 313.132 143.281
266.255 256.361 110.786
228.154 287.04 128.2
235.238 232.882 160.514
47.164 195.059 377.062
75.4386 221.841 345.629
165.263 183.149 336.289
123.07 203.949 344.094
139.135 158.597 372.545
102.341 243.167 309.075
123.475 257.073 272.261
302.173 67.7377 236.256
278.273 97.0715 267.993
281.176 51.8398 287.303
254.562 179.416 217.36
268.417 140.606 245.258
281.489 152.792 190.04
219.365 109.43 341.217
247.49 127.416 296.171
213.335 153.61 317.736
172.412 236.643 259.02
194.711 198.514 291.93
217.602 210.215 239.34
-45.435 153.177 405.288
1.12645 168.978 401.163
-138.314 111.018 392.347
-94.2179 132.757 402.294
1.66249 73.9634 446.632
-46.5426 104.083 429.586
-46.6137 54.2415 445.891
-274.579 -10.6544 286.553
-253.049 22.5182 318.875
-194.801 -40.5371 381.036
-225.716 -10.4453 351.968
-228.494 -74.7395 351.47
-222.187 53.717 349.006
-187.621 80.5197 371.867
-0.438629 -143.6 424.548
-53.8874 -125.559 428.456
-56.8613 -182.312 417.222
-47.3651 -6.13416 454.01
-49.6595 -60.7968 444.064
1.64342 -25.7869 459.272
-152.519 -134.505 398.039
-104.449 -101.68 421.906
-149.048 -75.4936 408.166
-146.019 54.6477 406.666
-149.473 -8.3999 411.202
-97.0391 24.446 435.465
-308.318 -24.7726 194.419
-297.909 -29.5888 237.796
-324.552 -21.0043 82.7492
-317.854 -21.6986 137.583
-296.942 -128.418 209.761
-304.737 -77.6373 177.907
-300.715 -121.405 157.243
-293.064 -7.29455 -133.257
-299.566 -11.9278 -78.6132
-308.065 -121.561 -31.0729
-307.817 -78.9298 -48.9363
-292.282 -120.925 -77.6783
-317.453 -23.3715 -20.5222
-323.959 -24.1529 24.3817
-228.649 -276.212 85.5451
-259.289 -246.623 49.5756
-232.442 -278.003 20.2052
-285.982 -170.924 119.654
-279.51 -208.705 83.3665
-276.657 -207.412 161.453
-275.704 -206.005 -34.0054
-282.453 -210.217 21.0492
-298.596 -170.637 -4.38907
-320.101 -74.2981 49.4952
-314.793 -126.604 19.8192
-308.301 -123.186 80.5694
-258.441 37.0832 -216.746
-277.025 9.64555 -179.773
-198.06 94.5463 -278.491
-230.423 66.3102 -251.188
-217.403 -42.1696 -234.18
-227.096 8.42604 -247.226
-191.965 -18.2307 -269.848
0.830358 192.388 -312.851
-52.2912 174.013 -317.591
-51.5395 68.4548 -341.617
-52.277 119.204 -334.827
1.42772 88.2627 -345.276
-104.301 151.148 -314.452
-149.66 127.253 -302.899
-51.9298 -138.015 -260.277
-49.1264 -89.5334 -296.974
1.02391 -102.949 -291.089
-142.422 -48.8761 -288.632
-98.365 -70.3517 -296.136
-137.028 -95.8643 -263.258
0.941174 -13.5018 -333.045
-50.8992 -43.4223 -319.918
-51.2698 6.08183 -334.288
-154.223 67.4794 -308.581
-103.149 36.7206 -328.32
-151.792 6.27068 -303.766
[...]
POINT_DATA 642
SCALARS Mean_Curvature double 1
LOOKUP_TABLE default
0.00674785
0.00570606
0.00686162
0.00702207
0.00224066
0.00809241
-0.00667803
0.0054295
0.00771219
0.00725453
0.00971173
0.00717526
0.00535503
0.005957
-0.00169522
0.000198916
0.00311412
0.00699799
0.00665086
0.00611237
0.00382123
0.00476635
0.00607581
-0.00112021
0.00396401
0.00862889
0.00665335
0.00725352
0.00541738
0.00564153
0.00812216
0.00578488
0.00799744
0.0051883
0.00610959
0.00680769
0.00150276
0.00661765
0.00669379
0.00564394
0.00690037
0.00383568
0.00679977
-0.000929856
0.00692724
0.00613506
0.00516056
0.00536515
0.00578496
0.005835
0.00585929
0.00617969
0.00717343
0.00527357
-0.000643131
0.00736151
0.00541922
0.00616543
0.00961625
0.00610148
0.00932761
0.00907196
0.00550135
0.00335361
0.00536826
0.0059057
0.00855872
0.00466812
0.00419121
0.00571776
0.00678995
0.00583801
0.00531081
-0.00266822
0.0125929
-0.00435657
0.00165912
-0.00371793
0.00775428
0.00599513
0.00614966
0.00559768
0.00599873
0.00578152
0.00545755
0.00622534
0.00585292
0.0055874
0.00452833
0.00345399
0.00756745
0.00130773
0.00632582
0.00173624
0.00536528
-0.0044576
0.00652945
0.00708609
0.00721207
0.00591767
0.00512367
0.00656087
0.00344979
0.00683863
0.00543646
0.00441449
0.00453439
0.00652486
0.00529292
0.0056492
0.00597175
0.0028944
-0.00353235
0.00578857
0.0063677
0.0028169
0.00751432
0.00642488
0.00695485
0.00661675
0.00784221
0.00945575
0.00594274
0.00679873
7.61637e-06
0.0058441
0.00945543
0.00703997
0.00548404
0.00683834
0.00678567
0.00701201
0.00470126
0.00178801
0.00630833
0.00637571
0.00696242
0.00324225
0.00604978
-0.00051082
0.00541545
0.0060761
0.0056913
-0.00145419
0.00926858
-0.00030124
0.00573888
0.00449939
0.00583523
0.0057277
0.0074088
0.00623299
0.0082565
0.00570045
0.00638328
0.00603673
0.00705704
0.006416
0.00622613
-0.0016159
0.00867161
0.00829222
0.00660719
0.00713623
0.00594626
0.00286733
0.00672605
0.00612208
0.00332158
0.00659856
-0.0057587
0.00623809
0.00588916
0.00633715
0.00592026
0.00597169
0.0060309
-0.00127197
0.00502598
0.00354974
0.00584022
0.00584296
0.00549689
0.00440627
0.00620114
0.00516566
0.00595279
0.00610563
0.00589334
0.00380566
0.00566016
0.00469951
0.00513175
0.00438027
0.00276362
0.00504369
0.00768831
0.00743459
0.00619416
0.00563552
0.00671643
0.000439506
0.00552512
0.0052891
0.00567643
-0.000158551
0.0062732
0.00675852
0.00567121
0.00527939
0.00781101
0.00697315
0.00187388
0.00621447
0.00320655
0.00486071
0.00341693
0.00215837
0.00681036
0.00483189
0.00756624
0.00837774
0.00571914
0.00950818
0.00662114
0.00549816
0.0081538
0.00619119
0.00913664
0.00619901
0.00804375
0.00766171
0.00563971
0.00499907
0.00554942
0.00719329
0.00523662
0.00628968
0.00627069
0.00449395
0.00679707
0.00547273
0.00580659
0.0056196
0.00653009
0.00697566
0.00436371
0.0044869
0.00665491
0.00542812
0.00562671
0.00388658
0.00561466
0.00363089
0.00464505
0.00565967
0.00542442
0.00419239
0.00448973
0.00220787
0.005707
0.00561832
0.00923206
0.0107521
0.00617949
0.00204821
0.00313647
0.00511495
0.00480048
0.00576727
0.00648808
0.00733767
0.00710643
0.00652257
0.00586614
0.0057116
0.00090196
0.0063231
0.00794087
-0.00294499
0.00764233
0.0126166
0.00571856
0.00773421
0.0103171
-0.000328442
0.00370669
-9.85006e-05
-0.00297148
0.012203
0.00742139
0.0130621
0.00720875
0.00643415
-0.00260648
0.00604422
0.00822373
0.00715544
-0.00119381
0.00502157
0.00572233
0.00621391
0.00632611
0.00611011
0.00617499
0.00472522
0.00570381
0.00587729
0.00565214
0.00374168
0.00547042
0.00419037
0.00605153
0.00629455
0.00622018
0.0049352
0.00630721
0.00461423
0.00569441
0.00656502
0.00578755
0.00559278
0.00653888
0.00572131
0.00618001
0.00199681
0.00575369
0.00447565
0.00280899
0.00633501
0.00613183
0.00604394
0.00017613
0.00282778
0.00964628
0.00857714
0.003786
0.00860893
0.00617567
0.0030753
0.0048288
0.00558489
0.00466537
0.00619107
0.0034531
0.00403412
0.00506925
0.00390974
0.00570241
-0.000167595
0.00184566
0.00609806
-0.004731
0.00705146
0.00379034
0.00542685
0.00344828
0.00416488
0.0041313
0.00622399
0.00660941
-0.00415755
0.00694142
0.00994232
0.00620523
0.00614682
0.00635803
0.00312914
0.00816676
0.00237697
0.00704892
0.00607141
0.00691349
0.0062156
0.00604955
0.00664956
0.00672596
0.002961
0.00517998
0.00682042
0.00547056
0.00699756
0.00632324
0.00683719
0.000669873
0.00613572
0.00434439
0.00660857
0.00594815
0.00557003
0.00479461
0.0061642
0.00530011
0.00648799
0.00648531
0.00697815
0.00545083
0.0038015
0.00519416
0.00519487
0.00531407
0.00505863
0.00418043
0.00585685
0.00539469
0.00625506
0.00665737
0.00524173
0.00539921
0.00543556
0.00817808
0.00370231
0.00733958
0.00331286
0.00307647
0.00573008
0.00707839
0.00477126
0.00747999
0.00471533
0.00595051
0.00501242
0.00404194
0.00401937
0.00163816
0.00948155
0.00823467
0.00827807
0.00771184
0.0101016
0.00523088
0.00410161
0.0060918
0.00326231
0.00673683
0.00572352
0.00660168
0.0073064
0.00784683
0.00918552
0.00764882
0.00718258
0.00983688
0.00661812
0.00678419
0.00689956
0.00566818
0.00775055
0.00648863
0.00559168
0.00598606
0.00623647
0.000724235
0.00616622
0.00711336
0.00638295
0.00442944
-0.000751776
-0.00159685
0.0082137
0.000241695
0.00571895
0.0080203
0.00655469
0.00760297
0.00569759
0.0059681
0.000717331
0.000486506
-0.00163784
0.000191154
0.00559984
0.00624924
0.00657562
0.00778636
0.00879012
0.0089448
0.00308673
0.0071599
0.00700803
0.00534181
0.00763488
0.00674997
0.00714186
0.00707265
0.00703294
0.00712602
0.0067981
0.00694488
0.00677009
0.00768486
0.00519178
0.00458103
0.000522777
0.00492757
0.00550392
0.00606172
0.00708897
0.00647061
0.00593787
0.00700582
0.0028138
0.00564246
0.00587192
0.00675892
0.00651583
0.00637171
0.00670869
0.00800294
0.00668238
0.00694615
0.00126186
0.00481645
-0.00400897
0.00580429
0.00555677
0.00603207
0.00661635
0.00674886
0.00503971
0.0060624
0.00675069
0.00179039
0.00415301
0.00601459
0.00382462
-0.00403524
0.0064925
0.00675484
0.00701188
0.00624195
0.00452724
0.00839137
0.00745008
-0.00513349
0.0100008
-0.00277468
0.00389328
0.000870169
0.00132684
0.00344289
0.00712929
0.00533196
0.00681583
0.00214954
0.00196725
0.00228131
0.000606347
0.00865738
0.00792294
0.00175068
0.00286761
-0.000548395
0.00288262
0.00245055
0.00540698
0.00942342
0.00559136
0.00562356
0.00524442
0.00509487
0.00298442
0.00552557
0.00666098
0.00597734
0.00561643
0.00576907
0.00582366
0.00560892
0.0067016
0.00704358
0.00784356
0.00542497
0.00638417
0.00646793
0.00652862
0.00794004
0.00669337
0.00668314
0.00634839
0.00673132
0.0111104
0.00646634
0.00362696
0.00625676
0.00617013
0.00656943
0.00693961
0.00523117
0.00662102
0.00571873
0.00469519
-0.00281273
0.0067731
0.00586236
0.00684361
0.00669364
0.00640034
0.0052951
-0.00401761
0.00382968
0.0031618
0.00686646
0.00633413
0.00584229
0.00586017
0.00695856
0.00653445
0.00638944
0.00741977
0.00631874
0.00600633
0.00557354
0.00603386
0.00568607
0.00646346
0.0052206
0.00649417
0.00590493
0.00618119
0.00836493
0.00666194
0.00602053
0.00667032
0.00747156
0.00304195
0.00146524
0.00362559
-0.00327778
0.00520803
0.00647451
0.00946829
0.00435047
-0.00509053
0.00689174
0.00779652
0.00776483
0.00752031
0.00790607
0.00948821
0.00927321
0.00666181
SCALARS CoVolArea double 1
LOOKUP_TABLE default
2181.53
2218.18
2395.52
2457.55
2707.77
1954.85
2988.03
2566.92
1869.33
2111.17
1909.28
2013.21
2664.86
2583.3
3679.92
3434.69
2901.88
3170.23
3132.98
3012.16
2813.03
3141.05
2658.66
3185.33
3108.36
2748.85
2503.68
2649.65
2974.1
3085.65
2727.27
3117.22
2748.66
3240.44
3424.12
3314.78
3745.5
2782.88
2843.39
3195.89
2611.47
3120.4
2268.94
3409.35
2254.38
2399.04
2681.64
2618.21
2176.43
2491.31
2483.58
2634.51
2544.38
2237.33
3481.06
2542.09
2702.29
2275.06
3109.31
2849.93
2789.72
3183.55
3044.51
3517.4
3097.29
3217.32
2557.06
3045.32
3393.74
2479.18
3109.36
2754.91
2532.48
3424.45
1888.51
3110.72
2669
3790.21
2158.64
2520.12
2468.85
2337.18
2568.62
2529.83
2982.67
2637.05
2752.24
3064.22
3405.28
3440.42
3028.09
3356.88
2462.48
2982.47
2567.05
3268.79
2891.26
2526.31
2854.71
2520.42
3034.65
3099.77
2885.83
2910.97
2645.8
3428.9
3090.95
2717.77
3287.91
2768.65
3196.73
2709.3
3393.08
3280.22
3069.27
2883.17
3134.61
2508.28
3318.22
3497
3097.78
3430.13
3184.44
3289.19
3797.13
3111.33
3382.31
3035.28
3182.27
2788.44
2702.61
3113.43
2737.88
3234.83
2661.86
2957.3
2649.15
2906.51
3084.79
3272.5
3130.39
2612.53
3076.98
3094.77
2570.54
3532.05
2495.3
3420.13
3131.84
3006.13
3104.5
3422.29
2920.93
3050.62
2849.31
3066.72
2941.26
2975.81
3134.5
3619.99
2453.98
2363.06
2405.08
2214.68
2474.03
2964.07
2410.08
2297.06
2901.93
2684.08
3919.92
2393.29
2296.49
2131.92
2556.05
2322.49
2366.41
2876.88
2579.87
3016.99
2263.74
2373.13
2395.52
3138.69
2214.22
2642.79
2425.5
2354.15
2562.97
3352.92
2908.9
3511.33
2530.42
2665.79
3095.62
2321.14
2518.69
2411.95
2807.83
2297.87
2197.54
3435.67
2639.64
2600.91
2621.12
3470.02
2583.27
2450.52
2473.69
2848
2409.84
2584.9
2858.45
2312.65
3085.37
3517.73
3590.99
3197.46
2719.5
2731.12
3018.58
2603.13
2887.3
2743.63
3169.37
2693.18
2680.06
3256.2
2805.4
2907.02
2681.43
3054.74
3011.53
3157.44
3035.21
3310.93
3150.73
2951.15
3003.17
3186.46
3369.48
3670.01
3840.17
3805.19
2812.77
2541.2
3312.21
2987.48
2607.75
2819.7
3073.62
3077.4
3074.24
3327.36
3074.77
2897.13
3057.79
3327.58
2571.71
2836.46
2558.09
2920.16
2588.56
2319.04
2755.77
2928.05
3267.97
3700.77
3700.78
3502.88
2454.62
2665.23
2476.45
2386.24
2405.89
2729.11
2659.12
2628.49
2381.6
3111.29
2105.91
2404.23
2596.87
2249.2
2572.32
3068.51
3010.97
3474.64
3663.61
2460.03
2601.71
2473.3
2216.98
2491.11
3820.5
2830.81
2385.56
2603.26
3430.3
2436.58
2420.25
2589.91
2379.75
2466.89
2250.38
3006.81
2278.11
2415.23
2494.96
3085.17
2393.73
2867.72
2479.15
2392.44
2592.65
3515.46
2825.83
3517.29
2607.57
2467.02
2835.25
2627.66
2631.86
2702.22
2930.44
2650.17
2666.91
3229.74
2847.59
2817.46
2609.26
2804.24
3398.78
3339.69
3105.46
3052.24
3232.13
2807.65
2959.1
3248.31
3397.04
3378.29
3650.8
3490.24
2615.54
2505.65
2959.38
2845.35
2294.11
2840.54
3229.48
2629.86
3537.21
2392.8
2820.17
2421.13
3308.48
2975.57
3121.74
2864.45
2632.86
3349.43
2952.27
2800.62
2451.59
2522.34
2516.2
3190.75
2839.82
3607.18
2496.24
2309.06
2919.05
2593.73
2703.58
2477.27
2704.34
3140.27
3119.73
3082.24
2941.19
2795.5
2937.96
3038.27
3207.09
2790.47
3075.57
2746.71
2630.63
2792.08
2778.19
2692.55
3058.66
3355.08
3398.99
3238.63
3123.45
3101.68
3342.54
3103.02
2967.72
3114.03
3372.3
2682.34
2848.93
3054.79
2875.03
2647.07
2966.68
3322.99
2487.13
2902.4
2461.94
3331.23
3026.82
2844.97
2477.21
2856.88
2951.97
3778.64
3580.62
3754.31
3264.89
3244.97
3277.73
2891.54
2865.09
2879.51
2961.55
2862.87
3461.33
2757.96
2750.61
2631.48
3170.15
2798.34
2886.61
2362.06
2547.72
2817.99
3223.9
3127.47
3146.18
3541.77
3254.97
3216.3
3081.96
3101.02
3312.96
3713.58
3772.83
3939.31
3519.3
3056.75
3300.17
3171.79
3315.77
3586.84
4088.67
3228.59
3490.92
3574.25
3422.31
3180.97
3434.6
3612.72
3018.31
3477.79
3221.83
4049.66
3487.36
3230.56
2868.33
3094.49
3200.94
3817.74
3794.88
3957.27
2801.95
2736.91
3294.75
2814.18
2719.1
2788.8
3036.91
2630.6
2741.77
2966.58
2731.13
2649.67
2757.55
3251.73
3110.72
2922.32
3081.34
3054.45
2861.1
2593.75
2540.74
2822.05
2987.14
3721.31
3606.51
3656.16
2789.65
2757.85
2964.98
2779.39
2475.41
2706.58
2768.06
3194.69
2882.68
3732.24
2966.09
2869.77
2662.95
2844.71
2659.87
2857.68
2395
2759.52
2973.02
2729.28
2803.38
3027.08
3790.1
3198.02
3647.83
3112.35
2985.88
2684.38
2559.21
3040.73
3510.68
2481.64
3370.96
2912.04
3193.92
3292.07
2927.42
2604.54
2645.17
2324.98
3350.17
2881.43
2767.88
2984.93
2969.19
3079.2
3247.64
3868.37
3505.16
3561.08
3373.25
3263.84
2989.8
2771.25
2907.55
2710.15
2915.93
3374.59
2634.79
2922.39
2706.75
2660.1
2904.69
3712.61
3415.15
3454.08
3145.22
3300.64
2828.34
2830.22
2762.65
3139.92
3197.83
3070.87
3223.78
3450.76
2644.66
2589.8
2440.34
2735.46
3071.18
3739.41
3584.4
3418.62
2856.91
2790.35
2632.37
2946.96
3641.87
2661.71
2743.02
2581.73
2667.73
2871.99
2645.06
3689.89
2916.95
2693.87
2680.3
3125.1
3083.39
3601.65
2567.56
2805.32
2571.77
2673.09
3029.89
2810.84
3049.14
2723.81
2695.72
2838.43
3132.94
3147.64
2992.24
2923.69
3040.08
3338.44
3437.19
3447.11
2295.37
3457.95
3002.83
3031.05
3553.75
2522.3
2480.86
2356.77
2739.01
3330.79
2538.03
2691.05
2190.85
2514.23
2668.77
3088.42
2520.2
3000.59
SCALARS SignedDistance double 1
LOOKUP_TABLE default
193.074
190.498
165.811
154.945
138.972
201.194
213.768
149.234
202.028
200.092
218.448
214.087
252.72
198.939
242.537
238.756
191.523
136.263
144.784
162.612
180.242
237.414
191.148
238.791
161.81
154.859
201.218
208.381
159.928
198.85
181.192
154.724
193.893
153.091
124.49
130.073
164.801
165.991
162.703
193.242
191.957
221.446
218.693
248.77
226.738
204.361
226.245
233.92
221.394
221.932
198.22
222.24
192.886
218.372
239.071
188.093
220.155
224.317
151.342
163.317
156.647
149.526
143.264
140.651
140.823
156.18
179.286
151.063
156.225
212.52
180.253
186.074
212.397
241.416
233.754
252.53
230.775
237.262
215.875
194.022
215.509
219.946
217.384
194.593
175.461
177.144
191.912
179.441
147.529
157.573
143.126
217.735
214.858
225.904
221.669
198.746
204.731
179.414
174.021
204.686
147.684
151.498
207.578
174.523
183.41
149.223
147.641
174.99
150
170.804
173.114
203.7
187.033
150.916
163.372
176.587
164.68
199.244
114.505
125.822
141.293
160.653
152.699
116.088
132.587
154.586
160.934
168.36
153.868
147.145
155.895
153.533
190.46
177.692
190.261
167.152
165.716
205.438
188.459
211.691
204.068
193.931
194.554
228.247
217.688
208.791
217.358
150.789
171.65
170.363
167.401
134.935
182.31
192.492
177.836
212.272
165.733
171.637
147.995
230.429
221.804
211.073
205.076
221.229
210.434
251.475
233.415
233.42
238.53
234.736
243.753
209.028
218.622
223.497
212.087
214.689
200.921
249.417
230.049
246.225
211.617
210.538
199.53
231.222
221.873
230.217
198.101
210.227
210.301
242.217
223.947
236.127
212.497
194.512
235.223
227.314
189.334
209.611
206.033
210.363
219.526
238.565
226.831
226.087
227.897
240.2
190.817
208.999
208.521
207.45
206.76
188.525
234.778
223.416
232.494
232.432
230.582
217.446
177.43
176.582
170.639
172.006
149.666
157.035
140.254
173.495
170.781
133.455
149.009
139.743
167.773
173.641
145.088
140.895
143.933
136.429
139.907
143.802
138.536
140.713
135.271
155.6
140.206
136.406
167.546
184.403
151.609
155.957
175.85
162.717
165.458
149.699
148.339
162.117
154.543
155.145
149.497
151.256
219.589
203.468
200.499
178.057
197.764
200.083
173.112
189.126
175.874
154.797
164.926
163.132
197.972
195.92
194.475
214.15
231.422
229.251
229.287
249.454
239.983
240.011
220.152
211.086
233.817
225.364
257.527
244.576
232.534
236.287
244.948
224.571
242.319
239.468
218.414
202.489
237.92
231.862
227.662
228.178
238.764
197.904
207.101
203.557
204.797
191.729
216.857
224.931
209.787
208.191
197.316
229.276
219.16
231.088
192.248
206.032
204.035
226.624
216.257
228.796
187.7
188.997
186.633
186.275
165.657
175.581
164.868
200.076
195.827
174.949
183.281
176.977
191.433
188.533
152.263
153.114
141.348
154.013
151.425
142.487
151.808
152.52
160.551
176.308
167.466
165.282
223.944
213.056
226.718
225.271
212.132
219.995
217.589
229.164
230.656
213.808
220.441
213.166
230.545
228.392
180.123
184.474
170.9
212.239
200.785
208.277
189.523
191.912
200.005
221.622
215.943
216.322
194.089
210.27
165.977
177.646
200.038
188.639
186.059
150.125
148.659
155.401
148.94
149.567
148.678
153.205
210.817
192.419
196.847
186.39
188.836
202.435
169.935
177.688
165.081
159.188
159.792
171.899
145.163
148.687
144.682
144.067
149.638
148.261
154.538
180.776
164.925
161.035
161.201
173.345
150.374
144.464
186.395
186.134
201.941
165.732
175.306
161.888
189.989
186.208
173.194
148.352
156.426
157.993
167.902
179.449
169.706
176.433
175.345
195.092
141.716
157.536
133.802
186.97
188.168
196.643
156.62
170.688
166.909
197.133
184.499
181.077
128.431
122.782
141.861
119.447
115.963
114.525
145.411
130.165
139.489
154.628
141.869
133.623
165.638
151.003
139.877
157.724
158.073
167.404
176.729
124.787
124.677
124.019
120.495
118.572
124.354
123.256
158.092
169.469
177.345
171.657
167.754
157.606
148.301
159.861
142.672
145.707
141.828
167.157
145.891
147.489
159.88
154.169
152.8
147.72
156.185
157.953
151.797
156.631
151.275
158.977
152.303
157.263
209.233
199.343
206.354
169.965
185.955
176.743
176.319
182.16
169.581
161.559
161.931
166.926
152.689
157.447
161.56
155.065
178.552
164.004
178.246
209.966
208.253
206.55
209.332
198.745
187.772
174.474
214.387
213.194
196.682
196.531
209.111
201.262
191.968
212.271
207.12
176.704
194.679
185.527
170.719
189.599
181.158
187.439
198.69
217.12
219.814
217.016
215.37
221.667
211.365
202.294
209.153
209.438
202.335
205.83
219.147
213.706
213.697
201.017
212.854
207.189
149.908
154.145
150.199
145.971
149.264
185.205
180.026
182.057
173.007
162.253
186.159
161.527
173.443
181.558
179.733
159.689
169.306
158.749
188.395
146.858
164.117
185.012
188.839
125.779
150.957
135.151
122.163
127.398
202.256
199.254
200.942
184.062
170.229
145.858
155.97
170.981
206.872
178.942
189.42
209.548
210.264
165.367
188.756
176.863
165.643
169.546
226.345
214.618
222.263
220.377
205.929
183.861
193.153
199.218
181.509
178.896
178.787
166.838
155.923
191.357
163.983
176.415
186.077
181.854
147.659
148.058
146.111
145.678
152.843
166.647
157.4
153.79
219.229
224.584
222.361
228.243
235.162
218.5
201.385
213.952
230.63
232.166
195.625
225.702
211.975
192.554
194.023
236.424
216.765
228.762
