# vtk DataFile Version 4.2
vtk output
ASCII
DATASET POLYDATA
POINTS 642 double
-159.006 296.723 21.0774
157.459 304.796 18.3846
-161.208 -255.805 46.5798
172.284 -263.507 47.1655
1.28042 -182.21 358.63
2.00186 154.036 315.455
2.42933 -111.777 -174.417
1.58415 218.62 -235.884
237.948 49.2913 -125.859
232.461 13.0946 225.523
-218.067 48.5 -124.105
-216.344 15.9874 221.269
-200.901 173.673 91.3872
-132.727 97.8861 304.092
-62.5709 216.603 160.802
68.291 220.012 165.951
1.49961 352.083 9.55555
105.502 328.324 -124.419
-96.9201 322.832 -121.472
-152.385 133.192 -222.472
-251.183 199.073 -51.0519
-232.218 28.1996 47.2707
140.502 101.261 309.694
192.353 164.254 100.42
-154.76 -99.8954 327.666
4.00484 13.3128 400.058
-218.27 -141.578 -32.7911
-212.527 -149.756 187.634
2.94182 47.9831 -282.186
-134.158 -31.4312 -204.432
247.695 205.465 -57.2829
159.586 135.768 -226.15
230.697 -153.89 191.264
165.921 -101.179 332.542
113.725 -275.816 253.42
-109.155 -273.012 251.963
0.612314 -296.144 46.5363
-99.1041 -243.092 -95.5051
107.088 -246.042 -97.7855
141.673 -33.7661 -207.626
229.384 -151.291 -35.1366
248.474 15.2523 55.7308
-195.491 241.318 56.7886
-154.234 191.732 119.811
-125.169 280.976 70.6103
-183.902 57.9439 269.829
-169.245 118.565 230.558
-203.97 78.8007 191.951
-35.5171 185.236 262.363
-102.851 158.464 260.809
-67.4054 131.332 319.857
-45.8079 310.438 70.061
-76.5585 343.116 12.982
41.7882 187.006 262.566
3.8312 224.14 173.993
85.9276 347.188 12.9561
53.1401 311.427 69.5874
123.913 286.251 68.4599
-55.9343 369.765 -51.0416
-131.014 327.028 -47.6597
138.857 338.876 -50.8959
61.5522 371.754 -51.4056
-51.8713 279.935 -189.245
1.65181 336.616 -131.152
56.6402 281.516 -190.71
-188.459 266.577 -90.8184
-214.51 260.901 -15.1154
-83.9168 179.17 -241.45
-132.019 235.709 -177.702
-238.51 151.048 -81.1915
-213.887 181.77 -133.301
-198.632 87.6186 -176.453
-243.648 199.511 20.1041
-220.886 65.6234 -36.2663
-252.618 156.88 -19.3703
-213.312 149.05 59.3522
-223.506 13.2829 148.419
141.952 196.956 130.194
197.066 246.488 53.4962
74.6173 132.655 323.021
109.478 161.439 265.013
219.843 76.3122 195.253
177.142 119.402 238.556
194.895 59.2541 275.252
-70.262 62.0735 363.201
3.00062 91.3794 366.342
-193.996 -45.5809 279.356
-148.734 15.5357 327.774
1.46283 -66.2452 390.465
-75.5384 -35.0234 376.057
-89.5768 -148.596 360.522
-230.268 -59.5751 106.622
-217.13 -76.1476 213.34
-207.562 -58.4679 -75.7211
-232.862 -72.092 6.67773
-190.418 -193.586 121.304
-225.276 -149.853 40.6181
-200.857 -206.992 1.66171
-156.437 44.994 -228.627
-190.131 6.65827 -167.686
2.33379 122.657 -278.753
-84.7196 92.1877 -271.547
-77.6397 -79.3028 -203.489
-80.9246 -0.899998 -256.942
1.56879 -28.9212 -253.49
138.129 240.498 -182.31
88.1937 181.335 -243.525
216.268 264.824 -18.1272
192.919 274.013 -94.3503
213.305 86.2545 -181.775
216.336 183.663 -139.257
244.203 133.176 -88.0519
206.474 -202.41 122.043
198.585 -224.877 219.434
146.482 -271.466 174.19
207.224 -46.3189 284.867
221.997 -135.517 264.939
236.805 -79.857 214.878
65.9238 -241.842 327.424
150.645 -200.84 316.687
94.8763 -152.442 361.688
62.4326 -301.371 181.651
100.125 -295.306 45.8128
-61.8255 -240.121 325.206
1.24533 -283.496 258.881
-92.4731 -292.933 46.2648
-58.9067 -299.751 181.049
-137.631 -267.702 171.438
66.2667 -291.472 -31.0554
147.474 -270.721 -31.3846
-138.122 -264.642 -29.2801
-61.7815 -291.37 -30.765
61.7981 -197.047 -141.77
0.871697 -247.37 -99.7587
-56.3921 -196.412 -142.124
185.74 -209.697 -73.5465
217.845 -214.463 -0.473711
82.3992 -81.7365 -205.014
128.284 -173.154 -138.98
222.017 -53.6403 -76.4113
193.447 -117.83 -105.255
202.382 6.14978 -172.351
237.203 -157.383 40.9315
234.482 53.6366 -49.618
247.892 -78.126 7.68529
243.908 -62.3647 109.794
243.096 15.7311 156.427
79.7974 -31.6022 383.228
157.115 15.6129 334.615
76.3091 62.0812 368.607
-183.544 -215.509 220.42
-144.274 -196.234 311.276
-205.43 -136.248 259.236
-119.981 -168.581 -135.747
-172.815 -203.731 -68.9118
-186.294 -110.546 -102.481
165.659 44.9563 -232.707
84.4751 -1.40534 -259.019
86.9759 92.2219 -275.008
232.371 103.254 70.2138
254.084 149.808 -21.5383
239.693 206.971 16.2284
-180.622 270.126 40.2009
-162.973 263.819 65.4369
-141.944 290.702 49.4948
-181.788 182.252 106.906
-179.313 233.584 78.4139
-206.603 210.574 71.3991
-99.6285 266.308 90.7533
-145.798 254.882 83.4776
-110.101 204.292 138.707
-202.379 37.5505 246.756
-198.28 67.9182 231.665
-212.31 47.0526 209.473
-154.319 108.84 269.315
-177.751 90.084 252.754
-160.597 78.2513 289.053
-190.847 132.327 140.113
-188.777 100.584 211.694
-176.337 138.025 171.887
-17.196 171.893 289.64
-51.8469 161.284 292.985
-31.0218 143.955 319.947
-85.0596 180.101 234.594
-70.2294 173.384 263.513
-51.3091 193.83 234.858
-101.211 115.919 314.494
-87.5593 147.249 291.115
-118.43 131.477 284.615
-155.914 152.36 192.427
-139.106 140.316 247.399
-125.243 165.355 217.049
-100.22 311.666 44.2047
-115.661 321.556 16.1789
-57.1652 278.465 98.6623
-81.0046 297.796 68.896
-44.8384 352.672 11.9377
-61.1957 329.936 41.9072
-28.4422 335.535 41.4853
21.9461 172.473 290.097
2.36077 189.053 265.385
38.7474 223.808 173.412
22.0212 202.09 237.844
58.5808 197.661 234.265
-15.5342 200.797 238.319
-29.1682 222.756 170.834
119.393 330.744 14.6165
104.301 319.468 42.8222
140.974 297.983 46.7608
32.9187 334.519 40.2944
70.3611 332.625 41.7427
51.237 354.083 11.1107
98.6709 267.168 95.7367
85.695 303.478 68.1368
62.8592 278.993 101.369
-19.5945 281.286 109.651
23.8564 280.551 110.748
0.782493 311.19 73.2488
-103.21 341.918 -18.8122
-147.713 313.989 -13.7779
-29.3483 366.49 -20.4741
-66.5469 360.252 -20.6988
-115.541 330.91 -83.3927
-91.8657 355.628 -51.8759
-78.2999 353.202 -85.2107
147.542 324.418 -18.5223
112.383 349.484 -20.0614
85.7136 357.108 -86.8415
102.256 361.057 -52.4627
125.265 338.924 -85.4524
74.7975 363.606 -20.6217
33.9563 367.48 -20.7779
-25.5845 251.742 -216.293
1.49438 283.205 -194.482
29.055 252.478 -217.105
-53.9312 336.04 -130.881
-28.2239 312.111 -162.803
-75.6079 305.204 -156.437
82.8069 308.608 -158.325
31.8802 312.139 -162.703
59.3231 337.929 -131.42
2.02814 370.999 -51.452
33.8083 362.255 -91.2204
-29.578 361.072 -90.7355
-180.382 294.393 -29.7324
-189.531 281.147 1.89835
-142.995 296.385 -106.213
-162.724 299.292 -68.559
-234.79 232.758 -32.2434
-205.312 266.416 -50.2668
-221.968 234.412 -71.3072
-42.9395 200.66 -240.487
-67.2875 233.968 -217.737
-142.376 184.643 -201.62
-107.131 209.579 -212.657
-120.551 156.193 -235.897
-91.9488 261.322 -186.814
-114.525 281.06 -151.299
-223.848 93.7272 -104.755
-219.752 115.835 -126.83
-213.349 66.3402 -149.381
-236.357 191.796 -95.0175
-231.318 165.075 -106.45
-249.498 174.503 -65.8121
-178.292 110.457 -202.317
-203.073 137.477 -152.971
-180.014 156.569 -178.031
-164.588 255.334 -135.223
-177.845 208.781 -157.957
-205.673 224.365 -115.652
-207.362 254.072 21.04
-253.043 202.036 -13.664
-231.962 229.627 2.14139
-221.296 221.652 40.2444
-227.865 194.379 54.75
-222.109 57.6006 -94.8633
-233.607 116.663 -61.6101
-241.38 118.876 -6.21394
-246.822 128.252 -21.5929
-231.612 56.7437 16.7051
-252.773 159.155 -38.9923
-259.248 174.15 -31.2395
-215.709 47.9881 178.284
-221.029 16.1962 193.405
-212.425 168.543 76.9258
-205.957 101.313 128.957
-232.005 12.7495 91.7449
-218.998 58.2674 118.226
-227.996 83.2048 43.5177
-254.173 176.925 -4.00531
-245.702 159.659 3.92073
-239.71 181.533 31.2506
163.954 268.746 63.4566
182.198 274.502 39.5204
104.552 210.343 149.987
142.547 258.613 84.8975
204.921 222.233 61.3345
178.279 242.407 73.2379
172.002 181.965 112.558
36.6968 144.138 321.014
58.7103 162.484 294.625
126.018 134.611 289.645
95.0452 149.571 294.717
108.5 118.5 319.203
77.3704 176.076 265.226
90.1116 184.815 236.726
228.683 45.7934 211.009
210.499 68.3991 236.03
216.102 35.5364 251.609
187.291 128.556 191.189
199.759 99.3519 217.649
205.251 110.1 169.342
169.604 81.5661 294.817
187.447 92.4732 258.782
162.728 112.072 275.34
127.302 168.859 226.376
145.755 142.735 254.313
160.476 149.752 209.418
-32.0498 114.112 345.854
2.28476 125.951 342.363
-104.791 83.051 335.416
-70.6459 98.9961 343.602
3.66565 51.9649 386.357
-32.844 76.408 369.114
-32.0004 37.6032 386.146
-205.385 -14.7449 251.96
-191.223 14.4587 276.612
-152.279 -41.2725 328.322
-173.728 -14.7953 304.116
-179.108 -72.9424 305.535
-168.853 39.3655 300.519
-143.548 59.3294 318.481
-1.04696 -129.555 366.155
-46.9441 -113.668 370.291
-51.6371 -167.421 365.216
-31.8361 -6.50694 396.569
-36.5432 -49.6366 388.175
3.86625 -19.7392 404.363
-124.699 -126.015 347.03
-86.4666 -93.7623 365.983
-119.633 -71.5274 354.066
-111.832 40.0435 349.509
-116.323 -10.7431 355.294
-71.8801 16.4847 377.157
-221.662 -21.8628 182.288
-218.507 -29.641 216.179
-236.5 -18.9576 77.5119
-231.465 -19.9232 125.163
-214.838 -119.457 202.923
-219.322 -68.6733 169.239
-217.075 -106.321 152.936
-210.471 10.0745 -113.907
-213.416 -4.20816 -61.8391
-227.768 -109.859 -12.2082
-226.036 -75.0143 -24.7353
-216.264 -109.394 -47.048
-229.608 -23.2255 -1.61962
-235.667 -23.1797 30.9173
-177.812 -231.923 78.1951
-200.78 -207.535 44.5315
-184.314 -233.826 22.2625
-205.246 -153.375 113.724
-210.418 -177.377 73.0348
-204.608 -175.58 162.586
-211.944 -174.894 -16.5698
-215.999 -177.633 23.0915
-226.306 -147.139 5.1461
-233.983 -65.3103 46.0976
-231.707 -113.326 20.9277
-226.103 -106.042 69.3818
-197.776 45.5772 -176.15
-207.499 26.1288 -146.671
-157.505 88.2215 -229.635
-179.443 66.7902 -206.279
-166.31 -9.1968 -188.59
-174.945 25.2056 -200.987
-149.151 5.92725 -218.888
1.68874 168.339 -259.293
-44.3244 152.3 -264.394
-42.0709 69.6445 -282.006
-43.366 107.171 -278.677
3.21068 83.9573 -287.549
-87.052 133.316 -262.205
-121.857 114.604 -252.238
-49.1725 -94.5084 -195.126
-40.3543 -48.8491 -237.094
2.05878 -57.1437 -231.725
-110.947 -18.3327 -233.075
-78.1398 -34.7923 -237.416
-103.216 -56.5763 -208.36
1.85419 6.56431 -270.738
-42.0473 -15.8541 -258.563
-42.6504 21.0412 -272.852
-124.85 67.9008 -254.688
-84.6866 44.3986 -270.048
-121.095 21.907 -248.06
[...]
POINT_DATA 642
SCALARS Mean_Curvature double 1
LOOKUP_TABLE default
0.0107792
0.00851145
0.00926489
0.00985203
0.0011667
0.0122664
-0.0141396
0.00489244
0.0151435
0.0100487
0.0118919
0.0131802
0.00935982
0.00835038
-0.00205667
0.000799065
0.000400161
0.0108406
0.00908145
0.0085547
0.0166802
0.00806257
0.00893125
-0.00162505
0.00547566
0.0123578
0.0109243
0.00615946
0.00489338
0.00551115
0.0124015
0.00779978
0.00695537
0.00742623
0.00842885
0.0117725
-0.000447422
0.0102632
0.0107768
0.00578658
0.00613014
0.00185482
0.00980451
-0.00435251
0.00979684
0.00861371
0.0072935
0.00522052
0.00740674
0.00725404
0.00834608
0.00692195
0.0100129
0.00670289
-0.00198858
0.0116329
0.00540043
0.00451766
0.0197424
0.00739855
0.0156387
0.0172153
0.00718389
0.00226995
0.00707274
0.0085353
0.0145275
0.00586517
0.00397494
0.00326155
0.0117414
0.00675709
0.0192559
-0.00776438
0.0121909
-0.0124176
-0.000257835
-0.00317804
0.0124605
0.00873571
0.00751809
0.00803241
0.00684865
0.00828539
0.00697331
0.00889302
0.00458612
0.00801931
0.00641396
0.00412838
0.00937851
0.00278181
0.00367575
0.00073421
0.00701511
-0.00879822
0.00927367
0.0106768
0.0113248
0.00842429
0.00617848
0.00929064
0.00653945
0.0100523
0.00678007
0.00483231
0.0052715
0.0117144
0.00836914
0.00931957
0.00637629
0.000587057
-0.00421558
0.0137154
0.00579984
0.00271844
0.0132347
0.00547167
0.0107618
0.0098938
0.00839213
0.00878487
0.00720323
0.0106987
-0.00369992
0.00766927
0.00839797
0.00898872
0.0075711
0.0109046
0.0107763
0.0102042
0.00426348
-0.000414032
0.00692127
0.00985096
0.0132872
0.00621087
0.00817348
-0.000103514
0.00723018
0.00813455
0.00313436
-0.00795482
0.0039763
-0.000879035
0.00645296
0.00586297
0.00716813
0.00740027
0.00864728
0.00900902
0.0126911
0.00648807
0.00897662
0.00937869
0.0107591
0.0091012
0.00869985
9.12473e-05
0.00949606
0.0130369
0.0102483
0.0110446
0.00992016
0.00366979
0.00783492
0.0126164
-0.000903812
0.00605358
-0.00573825
0.00841952
0.00842229
0.0099138
0.00820355
0.00835567
0.0084665
-0.00265027
0.0074481
0.00485272
0.00765328
0.00795285
0.00690896
0.0036675
0.00777684
0.00592555
0.00841378
0.0086046
0.00814319
0.00645615
0.00765334
0.00506788
0.00504157
0.00561027
0.00164985
0.00213906
0.0121608
0.00919882
0.00724659
0.00731453
0.00892257
0.0017041
0.0072062
0.00757988
0.00739243
0.00113498
0.00844974
0.00764181
0.00901585
0.00258203
0.0111469
0.010177
-0.00155934
0.00440103
0.00324513
0.0068238
0.00507971
0.00236725
0.00749392
0.00701444
0.0109363
0.0115642
0.00854297
0.0176418
0.011878
0.00482784
0.0108364
0.0109016
0.0188074
0.010725
0.0116951
0.0102273
0.00733384
0.00679708
0.00727707
0.0112944
0.00616249
0.00846017
0.0087585
0.00393076
0.00961851
0.00955275
0.00875346
0.008978
0.0132683
0.00984701
0.0048822
0.00657245
0.011506
0.00879101
0.00590296
0.0035118
0.00780706
0.00334152
0.00511569
0.00774006
0.00705411
0.00306587
0.00201993
0.00631912
0.0113136
0.0159927
0.00915778
0.0187049
0.00848705
0.00139992
0.00280491
0.00711254
0.00613801
0.00787254
0.00871589
0.0209054
0.00762436
0.00813179
0.0242811
0.00484479
-0.00184278
0.00264882
0.0177245
-0.00124101
0.0063968
0.0349512
0.00376274
0.0091118
0.016464
0.00110079
0.00404359
0.000450332
-0.00115447
0.0253945
0.0021953
0.0165738
0.0110179
0.0106277
-0.00225767
0.00575551
0.00922439
0.0066287
-0.00124692
0.00560298
0.00731377
0.00906117
0.00915396
0.0090269
0.00780431
0.00494521
0.00868111
0.00714972
0.00743963
0.00495481
0.00562593
0.0024597
0.00902553
0.00905878
0.00921852
0.004909
0.00812211
0.00436046
0.00726182
0.0101103
0.0081161
0.00777397
0.00889915
0.00733622
0.00825783
0.00294787
0.00865301
0.0035082
0.00439839
0.00959891
0.00877852
0.00862472
-0.00366105
0.00124061
0.0109442
0.0126722
0.00508865
0.0175343
0.00651992
0.00436171
0.00692276
0.00746527
0.00618273
0.00816114
0.000960971
0.00736083
0.00694086
0.00633844
0.0012951
-0.00181815
0.000879491
0.00409702
-0.00406098
0.00733742
0.00469855
0.00419933
0.00138567
0.00694268
0.00589644
0.00794355
0.0101003
-0.0102436
0.0144604
0.0145805
0.00815138
0.00738469
0.0129072
0.00338309
0.00810611
0.000928689
0.0101927
0.0113224
0.00974168
0.00949807
0.00656235
0.00938776
0.00941717
0.00221577
0.00665635
0.00880401
0.00768493
0.0124283
0.00958193
0.0111358
-0.00027182
0.00726938
0.00271181
0.00909122
0.00722045
0.00886726
0.00612076
0.00894383
0.00714485
0.010193
0.0100702
0.0107024
0.00711274
0.00332908
0.00503181
0.00660747
0.00711419
0.00651554
0.00437109
0.00931368
0.00788001
0.0117658
0.00785968
0.00931262
0.00869999
0.00600261
0.0133007
0.00645669
0.0126345
0.00282251
0.00309337
0.00745563
0.0122034
0.00692155
0.0111303
0.00606707
0.00985208
0.00621283
0.00549292
0.00183058
0.00399772
0.0155512
0.00757373
0.00842276
0.0130147
0.0135184
0.00875964
0.00660795
0.00562838
0.00836092
0.00819978
0.00922702
0.00683736
0.00346198
0.0113156
0.0135257
0.0123759
0.0144562
0.00911684
0.00988471
0.0105458
0.0110908
0.00571323
0.0115845
0.00911901
0.00966643
0.00900754
0.00858451
0.00370549
0.00841195
0.0117562
0.0053006
0.00474952
-5.99207e-05
-0.00467157
0.0140491
-0.00291331
0.00726543
0.0121172
0.0102674
0.0108448
0.00700824
0.0075768
0.0033858
0.00330168
-0.00237541
0.00202835
0.006089
0.00713509
0.00694528
0.0119419
0.0177905
0.0190751
-0.0044743
0.0119164
0.010821
0.00752078
0.00867576
0.0106006
0.0120199
0.0100044
0.0107895
0.0111997
0.0107349
0.011441
0.0104374
0.0119051
0.00642262
0.00537097
-0.0038709
0.00598384
0.00712905
0.00803906
0.00894345
0.00987564
0.00869315
0.00939881
0.00232931
0.00844917
0.0081669
0.0106412
0.00958726
0.00948768
0.0102766
0.0135575
0.0107283
0.011746
0.000466233
0.00629441
-0.00756754
0.0130745
0.00874478
0.00956888
0.0097527
0.00868109
0.00935313
0.00758287
0.00665581
0.00131879
0.00473153
0.00662821
0.00678555
-0.00899165
0.00986495
0.00683944
0.0112405
0.00975546
0.00258075
0.0121365
0.0138436
-0.00987684
0.00935754
-0.00139533
0.00428913
0.000859305
0.00385105
0.00271276
0.0125018
0.00295565
0.0113703
0.00203612
0.000784358
0.00154949
-0.000193716
0.0148683
0.0188755
0.00225121
0.00112091
-0.00235327
0.00300323
0.00312326
0.00820602
0.0154873
0.00709132
0.00792949
0.00686327
0.00729685
0.00453015
0.00634081
0.00921263
0.00760746
0.00789685
0.00824489
0.00801758
0.0070401
0.00975442
0.00423598
0.0111015
0.00857767
0.00868467
0.0107753
0.0110729
0.0100539
0.0115532
0.0101707
0.00988428
0.00963902
0.011592
0.00823301
0.00718993
0.00620891
0.0104641
0.0114954
0.0142426
0.00939893
0.00931588
0.00809397
0.0124178
-0.00742541
0.0109445
0.00784785
0.0103377
0.010297
0.00948119
0.00831752
-0.008354
0.00957241
0.00397431
0.00874167
0.00844629
0.00935852
0.0068046
0.0101537
0.0091501
0.0088526
0.0118034
0.00958501
0.0071448
0.00708204
0.0085863
0.00687316
0.00892717
0.0064267
0.00997218
0.00830778
0.00949552
0.0127803
0.00995617
0.00832796
0.0101665
0.00811141
0.00790772
0.00141547
0.00195351
-0.00178322
0.00675596
0.0115561
0.0144887
-0.000690425
-0.00954675
0.0110063
0.00596361
0.014667
0.0137412
0.0165334
0.0152098
0.014341
0.00488831
SCALARS CoVolArea double 1
LOOKUP_TABLE default
1301.68
1359.79
1605.83
1673.54
2032.33
1102.38
3227.76
1944.17
915.187
1242.01
1048.37
1131.74
1367.66
1490.27
3555.34
2880.46
1871.37
2102.73
2104.72
2009.67
1418.51
2138.68
1543.63
2677.28
2130.34
1479.48
1363.57
1768.09
1931.9
2491.76
1421.5
2144.63
1848.09
2297.29
2318.78
2154
3386.86
1621.82
1690.38
2634.3
1515.11
2439.72
1155.79
3046.63
1286.07
1347.93
1626.18
1818.35
1190.03
1431.96
1463.21
1668.7
1423.37
1263.31
2817.36
1340.17
1788.61
1379.36
1694.2
1779.62
1598.3
1803.55
2118.57
2588.14
2204.06
2187.52
1372.51
2166
2543.73
1540.39
1982.24
1796.23
1022.63
3773.45
600.345
3142.27
2046.48
3472.41
981.789
1502.84
1378.06
1416.66
1500.37
1503.61
1880.87
1603.82
1826.04
2009.95
2715.44
2471.12
2027.2
2764.88
1669.35
2356.16
1569.34
2588.6
1917.08
1423.76
1609.46
1489.02
2121.22
1919.84
1915.84
1718.13
1686.61
2530.57
2236.98
1592.96
2206.15
1730.07
2177.93
1697.53
2638.78
1965.85
2191.44
2012.09
1798.36
1596.22
2316.69
2338.27
2169.85
2554.81
2344.66
2288.02
2831.24
2216.52
2446.57
2138.17
2104.74
1673.25
1587.4
1978.74
1907.65
2286.6
1747.52
1718.82
1461.46
1945.8
2096.81
2699.5
2237.83
1617.08
2201.82
2993.55
1542.44
3049.8
1697.56
2396.96
2074.06
1882.13
1826.92
2216.94
1575.53
2127.69
1674.02
2102.09
1709.26
1821.41
1956.36
2936.54
1413.63
1029.98
1277.23
1075.25
1372.79
1999
1557.36
1258.35
2701.97
2183.07
4098.02
1364.47
1258.38
1094.38
1446.11
1290.34
1325.84
2088.14
1679.27
1950.3
1257.29
1349.28
1380.31
2596.68
1229.23
1918.96
1396.62
1310.81
1447.81
2329.67
1734.04
2826.35
1492.55
1669.33
2549.05
1498.32
1378.06
1332.4
1778.42
1311.69
1190.54
2710.03
1831.68
1778.77
1819.91
2825.16
1509.11
1343.48
1384.65
1888.11
1312.44
1488.56
2488.22
1462.76
2426.92
2689.22
2809.83
2238.73
1612.53
1694.28
1717.06
1324.9
1863.36
1487.02
1900.85
1647.45
1456.31
2009.28
1485.72
1784.83
1388.32
1775.25
2142.94
2280.73
2182.06
2228.7
2265.41
1998.95
2060.66
2338.01
2329.9
2227.19
2603.58
2535.33
1676.48
1409.47
2369.25
1999.49
1468.26
1737.86
1956.84
2305.86
2173.99
2475.78
2228.42
1962.38
2175.26
2421.89
1698.49
1913.53
1503.42
1614.15
1456.63
951.902
1819.17
2040.35
2380.81
2657.16
2669.34
2274.92
1321.5
1131.71
1309.25
1234.26
999.39
2373.92
2163.14
1517.75
1645.17
2540.12
985.547
740.691
1884.44
1325.03
1545.65
2728.23
2411.8
3538.16
3612.06
733.356
1816.71
1080.78
1119.56
1344.05
3553.52
2307.57
1532.52
1851.02
2932.13
1450.62
1415.21
1430.66
1317.51
1414
1253.32
2235.42
1236.19
1390.43
1499.31
2373.67
1446.82
2314.48
1435.61
1341.01
1433.29
2759.12
1619.86
2747.1
1576.8
1440.77
1724.36
1607.21
1573.97
1675.96
1758.51
1723.59
1685.91
2282.77
1909.14
1882.31
1568.29
1671.4
2973.64
2651.99
2202.17
1839.91
2324.07
1610.14
2003.93
2437.71
2479.93
2174.31
2564.5
2285.33
1949.43
1556.01
2056.75
2162.41
1543.99
2391.2
2989.25
1879.1
3574.61
1289.61
2215.97
1573.71
3144.54
2109.68
2380.8
1908.96
1577.44
2853.57
1983.31
1828.06
1357.43
1420.53
1287.59
2201.75
1647.14
3078.93
1387.94
1244.13
1719.77
1484.5
1911.1
1372.72
1531.88
2440.37
2270.29
1958.63
1921.71
1727.46
1926.09
1862.47
2832.29
1950.94
2745.16
1605.64
1633.87
1929.13
1834.96
1667.52
1971.23
2000.35
2085.67
1873.84
2243.85
2348.9
2378.06
2205.22
2057.92
2248.23
2491.55
1611.45
1765.71
1825.28
1806.86
1480.07
1902.92
2309.51
1352.57
1953.83
1324.31
2472
2183.94
1904.41
1347.31
1925.08
1709.74
2720.28
2345.5
2731.19
2527.33
2534.01
2503.02
1532.28
1869.4
1979.05
1846.55
1735.12
2272.15
1837.52
1792.55
1640.57
2022.41
1737.87
1954.66
1457.82
1388.74
1416.3
2234
1976.87
2325.13
2445.09
2149.55
2209.47
2196.92
1980.13
2184.09
2238.35
2479.09
2684.89
2805.14
2128.71
2063.67
2279.55
2743.45
3025.24
3988.37
2231.71
2636.37
2447.46
2553.15
2149.26
2580.11
2525.28
2118.86
2716.98
2403.53
3853.7
2783.02
2547.97
1806.96
2164.43
1954.69
2522.9
2480.03
3229.36
1698.15
1665.02
2386.89
1780.83
1618.85
1665.26
1882.5
1559.48
1635.33
1776.91
1587.7
1552.74
1671.87
2308.11
2783.88
2263.96
2699.6
1991.84
2012.1
1568.08
1488.66
1935.75
1873.65
2654.13
2483.04
2570.78
1666.82
1715.84
1777.26
1669.92
1345.43
1531.51
1537.24
2830.24
1935.43
3498
1973.47
2008.75
1610.99
1655.77
1763.91
1926.28
1343.11
1721.12
2197.75
1992.45
2039.75
2237.41
3668.93
1863.67
2870.74
1784.04
1916.47
1496.48
1430.12
2100.46
3137.35
1679.75
3075.64
2050.35
2890.54
3125.4
2336.66
1441.02
1855.72
1287.42
3081.25
2348.3
2080.75
2369.89
2054.07
1810.55
2220.65
3387.09
2957.99
2730.51
2653.67
2340.39
1687.67
1817.15
1808.46
1705.71
1979.59
2433.66
1621.78
1709.21
1670.95
1632.33
1794.53
2601.62
2201.52
2164.73
2411.33
2076.93
1781.77
1875.09
1462.71
2002.09
2027.94
1958.05
2146.03
2283
1650.63
1249.51
1336.75
1680.83
1935.49
2354.07
2171.31
1874.16
1842.15
1636.75
1588.09
1984.77
3377.34
1523.79
1570.52
1472.03
1550.04
1694.76
1602.33
3480.07
2006.94
1726.77
1564.33
1858.77
1805.87
2837.08
1440.07
1639.56
1464.63
1540.92
1854.55
1966.64
1955.77
1716.89
1707.74
1709.28
2291.9
2025.29
2010.44
1868.14
1859.44
2019.14
2144.57
2131
1358.02
2739.57
2396.98
2533.87
3210.02
1665.36
1130.8
1281.55
2367.9
2905.42
1318.69
1809.23
959.235
1242.73
1267.3
1917.91
1087.09
1935.81
SCALARS SignedDistance double 1
LOOKUP_TABLE default
120.34
119.198
100.107
92.7439
88.5087
121.923
134.692
90.1937
128.349
121.32
136.466
131.642
170.258
119.876
148.335
148.132
119.85
79.4896
86.0998
97.5642
123.212
144.421
115.126
148.175
97.1192
93.8694
124.345
129.534
96.3264
121.395
117.498
91.7018
119.593
92.407
75.5805
80.8343
102.167
99.3628
98.1588
118.261
115.589
132.867
138.065
160.096
140.549
124.123
139.372
143.466
133.18
134.669
119.625
135.911
121.865
131.032
150.898
119.02
134.09
138.79
98.1254
102.74
100.07
97.6704
84.431
85.4938
82.9184
91.6085
112.453
89.5363
93.6204
132.989
118.092
115.105
142.723
151.595
146.844
160.943
138.143
144.91
134.615
116.967
130.048
133.476
131.871
118.219
104.941
106.66
116.8
107.305
89.5537
94.8796
86.6203
129.589
130.11
139.755
133.548
131.578
126.829
110.093
105.76
127.916
87.6016
90.2709
137.271
106.197
111.986
88.346
87.6913
108.957
88.1944
103.635
108.72
132.422
126.073
100.576
105.661
106.284
105.371
121.226
67.6675
75.2686
85.5172
102.621
91.2809
67.6429
85.4089
91.434
102.472
109.736
91.0029
85.6728
91.5128
90.7851
118.815
111.649
118.651
101.135
102.9
136.078
117.463
129.846
124.623
120.191
118.218
142.21
132.174
125.177
130.311
90.298
102.817
101.96
106.236
81.5764
117.511
117.612
107.312
132.855
100.176
104.306
88.7597
143.651
140.068
135.205
128.399
137.911
131.667
168.5
146.348
151.075
146.599
144.919
149.635
127.918
133.954
137.442
128.844
130.913
121.403
154.724
141.983
153.716
127.666
127.411
120.545
139.206
134.108
138.123
119.505
127.427
127.496
151.835
137.021
144.712
134.266
123.63
142.856
139.823
119.192
130.536
127.327
126.923
132.552
150.753
137.216
135.784
137.155
150.042
121.727
131.249
130.665
126.98
128.802
118.62
142.683
136.637
141.048
141.828
140.61
130.771
112.677
109.287
108.009
108.49
91.4056
100.678
84.15
108.653
107.958
78.8723
95.9312
83.7682
106.386
112.294
86.1218
82.6248
85.3837
79.8537
83.2886
85.7268
82.2909
84.2042
80.1785
103.843
87.5342
81.5411
103.396
114.376
89.6421
93.2078
112.143
98.0914
99.881
89.8424
87.8149
97.7026
91.8525
91.9199
88.3679
90.5522
136.859
132.346
127.048
119.647
127.241
131.174
105.579
121.516
111.049
90.4916
101.748
98.5826
123.823
133.592
123.463
137.34
155.057
141.112
144.19
159.445
154.211
151.166
140.634
142.424
141.197
136.667
167.905
148.794
140.327
141.368
155.241
146.554
149.089
151.789
135.1
126.472
144.569
143.344
141.511
140.367
147.619
119.518
125.054
123.307
123.94
115.425
130.31
134.293
126.941
126.406
119.828
139.171
132.252
139.945
116.171
125.618
123.9
136.113
131.059
137.917
113.149
114.198
111.847
111.659
99.9185
105.57
99.1161
120.913
118.938
105.499
110.456
108.75
115.644
113.281
92.8501
93.3409
88.2104
93.2038
91.4863
87.1229
90.7585
91.3631
96.971
105.343
99.823
99.3653
134.781
131.417
136.712
136.129
127.77
132.155
130.013
143.626
142.601
128.409
133.086
128.419
139.245
138.068
111.926
113.616
103.893
129.556
124.378
132.711
114.937
116.682
124.777
132.926
130.565
128.75
120.727
133.532
100.274
108.627
122.383
115.655
113.118
89.5808
87.957
94.2235
88.9572
90.914
87.2141
90.2156
140.585
118.764
121.096
113.78
116.197
127.84
102.593
108.062
99.0408
95.017
95.6179
104.049
86.099
89.1723
87.048
84.9688
88.2834
87.5195
92.3755
111.866
100.696
99.863
96.9347
109.283
93.4326
86.1097
116.966
118.158
128.18
102.085
109.498
96.7665
122.805
119.917
109.558
86.7972
94.2664
97.4789
104.061
119.615
113.245
114.182
112.911
123.354
90.722
102.056
81.7538
112.885
114.805
121.829
95.1277
105.612
101.331
119.641
117.03
115.974
81.5127
77.5938
88.0125
70.0499
67.7335
66.6951
86.7533
80.3284
84.5886
99.3459
85.9113
81.7715
111.312
90.0161
90.2048
99.896
94.7519
113.594
119.756
77.0884
76.8269
74.8291
73.1589
69.1027
78.0001
74.4783
94.2343
113.299
118.782
115.873
113.378
94.0279
91.0559
101.77
90.13
100.337
96.1249
106.23
86.6007
86.9493
98.3036
93.1402
90.1474
87.1077
93.8836
94.1521
89.5363
92.6006
88.447
93.7546
92.45
94.0709
139.201
129.18
135.837
103.513
117.298
109.079
107.488
112.88
102.815
99.2697
97.1568
103.552
90.3121
94.723
96.3452
91.7622
111.584
99.7735
110.402
139.095
140.381
134.966
142.683
126.178
118.616
106.634
137.756
139.801
122.947
118.397
127.791
122.115
117.024
140.471
133.219
107.803
120.236
115.243
105.325
112.797
114.292
115.423
120.834
135.69
139.473
131.292
128.882
133.946
126.255
126.761
125.867
127.562
120.234
123.51
131.139
128.667
130.302
129.866
130.645
125.907
90.5125
91.4726
90.2875
87.3874
90.9135
111.951
107.552
109.23
103.965
96.6092
112.474
97.3891
104.839
108.508
107.372
95.743
100.921
95.3011
124.538
92.7167
104.411
119.374
120.833
76.3345
92.9707
82.5717
71.749
75.9752
125.332
125.401
126.039
114.663
104.653
91.9412
100.089
113.271
139.845
108.322
117.636
141.998
138.637
99.2607
114.542
107.548
98.7461
101.28
148.286
140.01
148.945
138.404
126.234
111.033
118.422
123.244
111.849
108.442
108.906
101.394
92.7122
118.366
98.6147
107.439
114.538
111.114
87.7378
86.8551
86.1109
86.1506
93.2432
100.597
94.305
91.4963
132.429
136.13
132.603
136.764
145.995
138.157
129.493
136.311
143.434
150.641
122.884
141.21
133.916
123.226
127.159
152.503
138.321
143.794
