# vtk DataFile Version 4.2
vtk output
ASCII
DATASET POLYDATA
POINTS 642 double
-130.611 251.055 -4.25503
128.595 261.062 -7.65771
-126.365 -219.963 41.5857
142.954 -227.852 42.0202
1.34292 -176.016 314.05
3.25248 105.434 276.413
3.15399 -75.8359 -114.126
2.56858 198.287 -193.69
175.462 61.9506 -117.38
173.858 2.47792 208.579
-150.074 60.3421 -116.538
-150.889 7.03027 207.125
-159.779 158.251 57.2732
-96.2766 65.2783 268.284
-35.874 155.476 123.28
46.0924 157.108 129.333
1.16085 299.788 -23.5543
89.0917 299.769 -102.411
-76.216 293.055 -99.3786
-118.879 119.269 -189.9
-193.309 193.414 -40.3463
-159.929 23.3134 35.2641
107.167 69.5334 274.535
136.683 131.828 63.9802
-121.522 -99.2882 291.502
6.85716 -0.370467 353.992
-158.504 -132.187 -12.302
-146.62 -140.143 190.632
4.71194 60.2496 -233.701
-97.3561 2.95058 -170.519
189.898 192.843 -51.1313
129.948 121.727 -193.438
170.696 -142.304 195.875
137.355 -100.34 295.53
99.5348 -242.532 241.796
-90.6017 -238.808 240.639
0.262101 -244.437 39.9681
-83.476 -210.609 -60.876
96.2797 -212.813 -62.5713
108.135 0.286801 -173.221
174.358 -142.864 -14.8681
180.425 5.37611 57.7212
-156.292 207.195 16.9706
-113.961 141.186 72.7897
-107.449 236.259 18.9037
-131.603 36.2743 242.107
-117.097 75.186 210.049
-136.765 51.745 180.914
-20.8457 125.61 232.857
-70.4063 103.681 234.184
-48.0733 89.7785 280.35
-31.7929 261.102 22.9788
-56.262 294.621 -18.1336
31.6526 128.423 232.213
5.93853 155.682 134.978
70.6506 298.933 -18.63
43.6626 261.295 23.4494
103.156 241.414 16.29
-46.2607 322.676 -54.9252
-101.159 283.315 -49.6525
108.776 299.873 -55.0896
56.7145 323.809 -55.1612
-41.8982 252.787 -157.251
2.0673 301.247 -105.607
49.5498 254.583 -159.041
-157.009 237.479 -73.4729
-172.885 226.073 -25.2092
-69.3392 158.854 -202.91
-105.836 211.921 -144.451
-175.822 168.091 -64.5629
-166.38 175.172 -101.61
-146.898 84.8468 -150.717
-186.487 190.081 -6.00216
-146.881 81.1283 -21.8626
-193.852 170.454 -30.9307
-143.717 162.894 43.9652
-153.48 2.25254 140.754
100.465 149.477 91.6432
155.093 217.822 10.2742
59.6988 91.087 283.562
79.7467 107.915 238.5
160.156 44.5201 184.486
128.449 76.5882 219.17
146.105 37.4228 247.665
-50.0633 40.9548 318.328
4.53076 61.4582 320.68
-140.734 -50.2737 252.145
-111.294 7.0072 289.112
3.48912 -51.7114 347.31
-55.1725 -33.6828 331.74
-76.7234 -143.759 318.398
-164.16 -52.5816 99.2705
-150.04 -73.4053 209.592
-140.241 -52.8576 -53.5145
-164.527 -72.4761 15.242
-140.319 -150.147 117.079
-161.9 -137.841 32.345
-150.166 -181.818 8.07885
-119.531 55.8596 -191.89
-137.45 31.4302 -141.582
3.78023 109.094 -235.831
-70.3893 89.4536 -227.643
-69.5207 -41.3965 -152.586
-64.9756 22.8306 -211.862
2.31298 3.60429 -207.371
114.352 218.292 -151.008
76.1169 161.821 -204.323
175.022 232.355 -26.3729
162.081 246.276 -79.3225
168.411 82.5181 -155.405
173.428 172.934 -110.859
177.755 136.377 -75.2469
158.136 -160.144 115.711
157.438 -197.02 215.091
119.012 -229.656 177.575
160.501 -50.3791 257.027
172.281 -129.335 245.755
174.433 -78.111 209.37
63.0347 -219.389 302.664
127.59 -185.035 290.796
84.7604 -148.662 319.027
59.8745 -250.917 191.23
93.1239 -248.988 41.6679
-56.479 -217.678 300.159
1.62367 -243.646 242.645
-80.9059 -247.511 42.4008
-54.4814 -249.685 188.969
-105.713 -227.721 172.929
65.2027 -247.339 -17.0931
127.094 -235.389 -17.1482
-112.827 -229.057 -14.8216
-58.8437 -247.242 -16.7574
62.0817 -170.304 -88.9915
0.729097 -208.208 -60.8996
-54.4332 -169.216 -89.6757
150.831 -187.583 -44.1928
171.554 -192.227 5.64536
74.6604 -42.2752 -154.158
103.404 -156.413 -88.3815
161.602 -43.742 -55.362
147.471 -107.996 -62.5888
156.084 31.7618 -144.621
178.456 -144.216 33.06
161.051 59.8088 -45.9504
180.815 -84.2623 18.3236
180.052 -55.6733 103.361
176.717 7.11101 153.103
61.2443 -27.8388 341.281
122.551 5.99817 296.159
59.1866 40.2398 324.459
-137.884 -188.13 215.818
-117.809 -180.185 284.99
-147.97 -131.679 241.982
-91.6898 -150.92 -87.4821
-133.05 -180.278 -39.8652
-135.175 -100.296 -59.8532
133.637 56.1053 -195.325
70.9729 21.6336 -213.753
73.1998 89.2906 -231.179
176.15 81.9991 42.7964
186.097 163.888 -29.7055
179.947 195.152 -15.0773
-144.989 229.93 6.81242
-133.274 223.99 19.0912
-118.951 244.359 9.86791
-149.597 138.541 61.4715
-145.404 201.207 26.1347
-162.149 183.915 23.1715
-78.7018 219.24 35.3702
-121.395 215.751 29.4196
-76.8121 148.922 98.1283
-143.335 21.7265 224.504
-137.925 41.4277 213.949
-145.769 26.0014 199.105
-110.076 70.4671 241.062
-125.225 57.5417 228.918
-116.18 50.7903 256.768
-135.962 116.881 122.81
-128.298 64.6052 195.025
-126.34 91.4375 143.8
-9.09262 117.054 255.039
-34.7115 108.918 258.123
-19.3854 98.5041 279.96
-55.7841 119.832 211.398
-46.1492 115.629 235.196
-30.6227 130.939 211.395
-72.8865 78.6781 276.355
-61.3079 98.3494 257.763
-83.6494 87.1212 253.163
-102.982 100.686 167.663
-96.8264 90.3054 222.929
-85.6945 107.391 193.665
-80.22 261.505 0.964427
-91.9747 271.667 -14.3643
-34.8612 229.636 49.1981
-60.7871 250.121 18.6276
-38.4336 301.749 -19.3547
-45.1974 281.228 -0.836498
-25.2686 283.792 1.59841
17.1919 117.942 254.932
4.46464 128.733 234.286
30.8771 155.401 135.671
18.402 137.051 213.308
42.476 135.235 210.442
-6.94356 136.227 214.012
-15.4139 156.439 132.42
93.9159 284.147 -15.9204
83.8943 272.954 -1.28237
117.439 253.584 4.18631
32.4605 282.659 0.234159
60.279 283.845 -1.37067
49.4904 303.571 -20.7146
75.3109 219.347 45.6764
66.5415 257.289 18.4204
43.6727 229.218 52.8319
-10.001 228.991 60.6439
17.7416 227.913 62.4895
1.16818 259.991 30.228
-76.4335 295.86 -37.1569
-121.39 268.639 -27.1522
-27.5275 316.135 -41.0954
-50.4957 312.758 -41.2884
-89.3628 296.465 -72.1245
-67.1662 312.904 -56.2719
-62.6448 317.523 -73.0074
116.827 281.515 -36.2928
88.6064 305.648 -39.6868
75.5824 321.968 -74.5391
83.6593 318.064 -56.2796
102.74 307.107 -73.653
64.6252 315.087 -40.9421
34.4806 315.913 -42.0289
-20.5184 228.55 -179.108
2.33512 255.431 -162.886
26.0327 229.603 -180.276
-46.292 304.245 -107.615
-24.6167 280.293 -133.7
-59.6895 276.36 -127.418
71.2489 280.176 -129.2
30.3824 280.063 -133.749
55.3298 305.659 -107.649
2.5634 319.924 -54.8541
33.4681 322.992 -76.9375
-27.1655 323.219 -76.9425
-148.675 254.508 -33.154
-153.838 241.039 -16.3497
-117.065 265.934 -85.8247
-133.992 263.512 -58.2268
-190.66 206.708 -32.6474
-169.424 234.659 -43.2674
-183.574 210.819 -56.3812
-36.4963 180.185 -198.935
-54.2496 212.135 -181.184
-111.709 165.086 -168.096
-84.3484 188.01 -177.652
-96.7951 137.761 -200.651
-72.1395 236.447 -155.435
-90.0425 252.81 -122.251
-154.905 101.679 -95.1938
-156.251 119.183 -106.715
-151.038 71.3486 -132.072
-182.189 187.326 -71.0652
-172.77 174.304 -82.4404
-190.707 193.511 -48.6322
-134.678 101.741 -172.058
-150.841 133.158 -124.125
-138.28 143.473 -145.309
-137.903 229.911 -108.594
-145.062 191.169 -124.929
-169.613 204.403 -91.166
-165.514 218.956 -4.1158
-190.477 196.597 -30.7027
-185.352 202.327 -15.87
-173.414 195.168 8.00212
-176.359 178.113 16.6574
-151.391 67.8753 -92.49
-165.244 138.418 -49.6621
-187.474 129 -13.332
-188.515 140.377 -19.5655
-171.765 59.5099 18.9522
-193.647 174.396 -33.1305
-190.553 184.681 -34.0958
-145.924 29.0669 172.482
-151.396 7.52674 188.808
-162.501 162.649 47.1214
-135.381 81.1635 111.834
-160.828 1.30671 84.2569
-148.991 42.4433 107.063
-162.655 72.2008 15.8067
-192.618 198.522 -29.1571
-181.855 170.104 -29.8993
-184.866 185.527 1.42247
135.401 230.381 16.4936
147.557 235.706 5.15305
72.0147 154.526 113.614
115.627 215.416 31.4084
155.338 201.703 13.7335
140.769 211.498 22.3342
121.841 142.919 72.885
28.499 98.7289 280.815
45.7436 110.588 259.111
94.1182 90.3945 259.002
72.5677 100.835 261.399
83.8778 81.7256 281.474
57.0739 119.741 235.878
63.5992 126.193 213.487
169.398 23.6245 197.157
155.596 40.5173 216.544
162.353 18.1075 228.062
132.628 86.1304 174.014
145.335 62.3878 201.828
144.467 74.2329 155.381
128.129 55.1127 263.226
137.671 59.3163 235.862
120.875 73.7018 248.666
91.4344 113.681 204.859
106.013 93.9553 231.109
114.779 100.315 189.601
-20.5521 78.3713 301.859
3.42337 87.0485 299.165
-76.8348 56.8058 293.729
-51.2549 68.0744 300.448
5.86482 29.9916 340.068
-20.9961 50.1639 323.297
-19.0858 20.2189 340.571
-147.742 -18.7907 230.617
-138.29 5.58914 247.956
-115.526 -44.6795 289.224
-128.809 -19.8406 270.25
-135.077 -75.6765 272.316
-123.477 24.6019 266.58
-106.404 38.6784 280.026
-1.47747 -119.953 318.724
-42.5901 -104.853 323.005
-49.087 -160.589 320.268
-16.5559 -9.95624 351.522
-23.7372 -40.9019 344.339
6.78672 -17.5399 360.025
-100.973 -123.191 307.503
-71.9674 -89.1438 322.042
-93.8055 -71.2789 312.241
-83.1863 25.2483 306.638
-87.7902 -14.8336 313.05
-49.8384 7.07743 332.133
-152.287 -21.3592 176.142
-151.288 -29.848 207.032
-166.417 -21.9838 74.3105
-162.707 -23.1242 115.372
-148.908 -115.501 201.756
-151.368 -63.8007 162.613
-150.592 -97.0472 149.349
-141.784 25.4901 -103.619
-143.727 -1.00462 -50.9548
-163.325 -106.802 1.54419
-160.529 -75.7866 -6.05559
-155.129 -106.584 -22.7826
-159.84 -24.9568 14.8694
-165.723 -24.157 36.5629
-131.505 -202.352 68.918
-149.062 -181.703 37.1692
-141.418 -203.482 21.717
-142.402 -153.088 107.886
-151.833 -157.709 60.0228
-139.393 -155.137 168.03
-158.086 -156.86 -3.28171
-160.097 -157.957 21.975
-163.258 -136.005 11.3531
-165.451 -60.8879 44.41
-164.402 -108.815 20.7081
-161.175 -96.1933 60.6508
-144.518 56.7904 -150.05
-144.297 44.2695 -129.585
-121.431 85.5362 -194.001
-134.503 70.4065 -174.61
-123.622 22.066 -158.122
-129.951 43.7214 -168.967
-112.532 30.8222 -183.155
2.56056 148.845 -217.653
-38.4294 134.733 -223.207
-34.6481 73.9193 -234.283
-36.2362 99.3502 -234.705
5.35408 83.8868 -241.117
-73.2538 119.781 -222.469
-98.0135 105.865 -214.004
-54.241 -51.9919 -137.681
-34.0311 -10.0249 -192.906
2.95281 -14.326 -188.269
-84.3341 11.8792 -192.77
-61.1918 -0.501487 -193.638
-73.8233 -20.0972 -166.753
2.63236 26.7567 -222.782
-35.1366 11.6841 -212.494
-36.4109 36.783 -225.535
-99.5906 71.2434 -214.013
-69.8735 54.0872 -224.856
-94.7581 39.64 -206.652
[...]
POINT_DATA 642
SCALARS Mean_Curvature double 1
LOOKUP_TABLE default
0.0203658
0.023542
0.0169946
0.0172156
-0.00767295
0.017869
-0.0115115
0.00176814
0.0314544
0.018673
0.00899798
0.0220241
0.0223162
0.0125634
-0.000258341
0.00524446
-0.00601219
0.0191954
0.0134469
0.0137445
0.120424
-0.0428537
0.0147733
0.000701949
0.0103196
0.0143173
0.0109854
0.00763254
0.00157932
0.00650438
0.0112339
0.0112826
0.00948213
0.0115231
0.0136261
0.0171857
-0.00248119
0.0183302
0.0178738
0.00663003
0.00860229
-0.0015249
0.022234
-0.0126629
0.00698814
0.0128684
0.0106516
0.00262771
0.009968
0.00636829
0.0133186
0.00868722
0.0140177
0.0114137
-0.00448154
0.0192875
0.00814604
-0.00387156
0.0406668
0.000661729
0.0267251
0.0337889
0.0104466
-0.00154617
0.0104809
0.0130499
0.0180117
0.00822531
0.00196816
0.00282694
0.0205477
0.0135675
0.0264822
-0.0165438
0.238497
-0.0312696
-0.001052
-0.000590897
0.0245879
0.0135716
0.00669792
0.0076625
0.00492507
0.0113969
0.00983486
0.0140602
0.00231248
0.0128105
0.00763187
0.00460882
0.0130717
0.0054843
-1.37723e-05
-0.00207366
0.00928947
-0.0387411
0.00722875
0.00983028
0.0189196
0.0212225
0.0081205
0.0128297
-0.0219402
0.014636
0.00891178
0.00579296
0.00568141
0.0264788
0.0185736
0.0205514
0.0107104
-0.0148191
-0.0386164
0.0235906
0.00999053
0.00433333
0.0197577
0.00266581
0.0196972
0.015441
0.00975668
0.00685742
0.00929626
0.0191992
-0.00986931
0.0131531
0.006108
0.0158116
0.0142542
0.0206273
0.0200973
0.016385
0.0105122
-0.00585194
0.0114258
0.0180093
0.027272
-0.00278999
0.0128285
0.00318837
0.0180729
0.0149883
0.00172525
-0.0125147
-0.00610472
-0.000375375
0.00977783
0.00805932
0.00842293
0.0100363
0.0125323
0.0165628
0.0142825
0.00839704
0.0123204
0.0308916
0.016979
0.0135592
0.0107854
-0.0518614
0.00444584
0.00228331
0.0148839
0.0137377
0.019143
-0.0477636
0.00597583
-0.0208534
-0.00593352
0.00855216
-0.00299068
0.0133992
0.0118832
0.00829331
0.0132569
0.0138042
0.0130453
0.0830384
0.0227448
-0.0828614
0.0106583
0.00969336
0.00806227
0.00487475
0.00801619
0.00823437
0.0126848
0.0118569
0.012147
-0.000856604
0.00889514
0.00809404
-0.00174984
0.00382637
0.00113959
-0.00118509
0.0188606
0.00692972
0.00831113
0.0093412
0.0102625
-0.000115282
0.00811742
0.0143944
0.011774
0.0042725
0.0113573
0.00199005
0.0101392
6.92121e-05
0.0127269
0.0139764
-0.00296141
0.0011252
0.00397293
0.0107596
0.00870411
0.00717432
0.0103801
0.0196261
0.0180956
0.0132044
0.0215273
0.026833
0.0314852
-0.00364995
0.0132948
0.0303015
0.0360908
0.0293821
0.0137929
0.0105778
0.00907905
0.0105487
0.00972366
0.019748
0.00610213
0.0102796
0.0119815
0.00226285
0.0140672
0.0103249
0.0208847
0.0245297
0.0283095
0.0116088
0.00806695
0.0158157
0.0508514
0.0205902
0.0205412
0.00161585
0.0127466
0.00408603
0.00597459
0.0117562
0.0106369
-0.00124924
-0.00133924
0.00744496
0.015753
0.05235
-0.00329492
-0.0953143
0.00982085
0.0038424
0.00411645
0.0117979
0.00999868
0.0191078
0.0104426
-0.0865484
0.0190567
0.0146422
-0.0987457
0.00406806
-0.0129926
-0.127034
0.0859219
0.0721476
0.0144136
-0.154492
0.00270216
0.00993695
-0.113249
-0.0143911
0.00359384
0.00276272
-0.0167793
0.12614
-0.0399198
0.0845807
0.0205348
0.0194968
0.000306766
0.00176317
0.00553799
0.0136218
-0.00155754
0.00573079
0.00797691
0.0125959
0.0122894
0.0149112
0.0102424
0.00658639
0.0153591
0.00807746
0.00931504
0.0059518
0.00719858
-0.000563539
0.01555
0.0102414
0.0134324
0.00617836
0.00819636
0.00584228
0.00842771
0.0174222
0.0122367
0.0125864
0.0119424
0.00867049
0.0123116
0.0116167
0.011119
0.00271884
0.00889708
0.0135282
0.013453
0.0132884
-0.00543516
-0.00054397
0.00650976
0.0189429
0.0079637
0.0378859
0.00888909
0.0103196
0.00952912
0.010731
0.00920892
0.0104728
0.00049591
0.0050944
0.00931162
0.00911735
0.00144441
-0.00272349
-2.89145e-05
0.00698799
-0.00213246
0.0137511
0.00686556
0.00441344
-0.00402544
0.0223462
0.00684068
0.00724617
0.0168417
-0.0204064
0.0570945
0.029457
0.0187032
0.0182603
0.0159725
0.00364805
0.00660403
0.000732159
0.0215589
0.00790539
0.0143679
0.0149428
0.00772959
0.0131308
0.0130789
0.00166091
0.00842458
0.00900998
0.0135836
0.0230843
0.0169322
0.019334
-0.0105499
0.00986433
0.00110937
0.0133339
0.0108531
0.0435421
0.00969461
0.0143912
0.0116814
0.0184716
0.0170309
0.0174842
0.00962891
0.00202064
0.000968909
0.00983744
0.0112623
0.00971607
0.00523839
0.0153821
0.0224001
0.0236071
0.011354
0.0287584
0.0107779
0.00638874
0.0254162
0.0133831
0.0324419
0.00100131
0.00569572
0.0105674
0.0185358
0.0133279
0.0187214
0.0110421
0.0188684
0.00521286
0.00933803
0.000736285
0.00635991
0.0175226
0.00783594
0.0162359
0.0172278
0.0133876
0.0209929
0.0143731
0.00929457
0.0088716
0.0138859
0.0164038
0.00515198
0.00110245
0.00605793
0.0083189
0.0234631
0.0229461
0.00445029
0.01657
0.020054
0.0200042
0.00693069
0.0146443
0.0119549
0.0200052
0.018237
0.0127531
0.0169962
0.0150152
0.0178305
0.00991439
0.00703002
6.04623e-05
-0.0118326
0.0275127
-0.00726865
0.0131421
0.018551
0.0193845
0.0152594
0.0121194
0.0125906
0.0167267
0.00672599
-0.00515635
0.00442845
0.00835658
0.0128231
0.013578
0.0200064
0.0311286
0.0336596
-0.010878
0.0210016
0.0176896
0.0119668
0.00572925
0.0198307
0.0219021
0.0132259
0.0175742
0.0201527
0.0188735
0.0227331
0.0182929
0.0136933
0.0102347
-0.00165565
-0.00959262
0.00230953
0.0109944
0.0130619
0.00685882
0.0135284
0.0157176
0.0120478
0.000600776
0.016163
0.013218
0.0207408
0.0187678
0.0161926
0.0179736
0.0101725
0.0239479
0.0145577
-0.00894287
-0.0737095
-0.0131579
0.102778
0.0328514
0.0255516
0.0192172
0.0118502
0.0209643
0.017845
0.0107077
-0.00760037
0.00552537
0.00654195
-0.0436437
-0.0112788
0.017365
0.00552862
0.0129969
0.0166817
0.0180723
2.53818e-05
0.0401316
-0.0112938
0.0034217
0.000666477
0.00315675
0.00131747
0.00809104
0.00652191
0.014862
0.000751825
0.016109
0.00258547
-3.71085e-06
0.000806423
-0.00132347
0.0238234
0.0272017
0.00295653
-0.000352638
-0.0028887
0.00542753
0.00420052
0.014702
0.0247217
0.00845846
0.0131164
0.0104352
0.00993795
0.00915944
0.00549682
0.0132359
0.00815428
0.0134006
0.0132419
0.010654
0.00900702
0.0151912
-0.00211526
0.0125511
0.0151533
0.0126128
0.0176808
0.0207034
0.0105577
0.0173364
0.0166645
0.0194837
0.0131701
0.00382301
0.00203714
0.0158955
0.0119933
0.0187233
0.0208612
0.0182565
-0.0779645
0.0143599
0.0299613
0.127649
-0.0195234
0.0218018
0.0136833
0.013726
0.0178438
0.0145998
-0.0852174
-0.0170516
0.100037
-0.0318953
0.0129513
0.0142123
0.0146694
0.00631078
0.0135701
0.0129099
0.0121559
0.0199704
0.0162678
0.00886276
0.0096854
0.0129819
0.00985768
0.0130686
0.00756667
0.0170925
0.0122625
0.0180947
0.0169089
0.0158251
0.0125363
0.0171437
0.00696793
0.0182318
0.00579307
0.00221797
-0.00215515
0.00297007
0.0322815
0.026162
-0.00363529
-0.0238908
0.0254355
0.00387216
0.0184303
0.0312317
0.025457
0.0339069
0.0456865
-0.032577
SCALARS CoVolArea double 1
LOOKUP_TABLE default
660.519
733.225
964.036
1033.3
1662.61
583.593
4222.78
1574.72
359.666
638.957
636.695
550.405
658.643
785.924
3433.2
2307.37
1337.52
1295.5
1356.64
1299.04
249.769
1295.36
795.806
2268.73
1433.66
680.908
694.534
1485.06
1255.86
2353
542.945
1452.23
1478.72
1609.7
1413.9
1248.09
3430.37
833.503
903.795
2434.19
869.273
1988.09
486.622
3178.28
872.652
675.358
1058.18
1459.89
634.147
850.946
811.652
1110.76
786.826
680.556
2253.98
634.699
1235.82
1098.89
636.792
958.457
741.173
740.565
1452.82
1916.04
1567.14
1376.05
578.003
1523.91
2004.85
1204.44
1076.97
1061.37
192.518
4500.68
201.077
4270.05
1689.14
2947.49
357.002
856.465
789.877
941.287
933.682
844.202
1146.44
936.094
1157.78
1260.34
2184.44
1740.12
1342.72
2277.29
1380.42
1991.17
978.309
2402.95
1341.05
708.439
786.075
757.139
1443.7
1084.43
976.635
920.745
1057
1930.78
1631.33
705.787
1329.46
937.531
1428.48
939.758
2304.04
958.2
1495.25
1373.87
871.016
1166.57
1474.1
1441.02
1566.96
2179.79
1660.92
1455.06
1991.94
1448.91
1892.91
1387.97
1328.13
861.83
793.3
1168.3
1453.27
1614.32
1199.85
855.221
637.228
1042.58
1354.42
1970.85
1570.49
923.09
1696.1
3464.84
1027.33
2692.83
1198.39
1615.95
1341.45
1130.53
929.462
1265.94
739.207
1401.28
888.124
1276.43
874.855
1043.73
1120.39
2081.02
1045.36
413.636
575.61
464.463
667.498
2053.78
1272
644.411
2906.31
2029.72
4177.08
679.061
646.789
553.456
746.397
647.369
664.998
1692.73
1013.68
1475.91
670.759
744.187
750.63
2232.97
694.862
1393.68
735.17
690.377
762.93
2106.4
1032.55
2304.63
970.159
991.525
2320.17
1267.14
723.724
798.517
1221.62
733.171
609.143
2050.5
1284.05
1155.67
1264.77
2161.23
840.806
809.642
724.728
1410.09
748.236
883.165
2459.09
1163.5
1976.75
1954.64
2134
1587.98
892.861
922.159
863.091
549.239
1056.01
623.831
888.64
944.478
698.299
973.646
541.26
886.515
576.03
942.482
1542.42
1662.67
1595.71
1400.41
1672.21
1352.51
1407.04
1787.35
1545.56
1029.34
1532.88
1432.14
800.148
666.048
1674.21
1173.96
426.683
867.045
862.743
1809.33
1523.44
1893.29
1651.18
1286.37
1594.38
1863.92
1295.77
1259.89
788.113
519.577
787.198
323.827
1154.56
1322.76
1694.21
1899.32
1868.05
1239.29
618.459
123.523
430.776
457.703
282.175
2662.33
2260.66
598.965
1352.59
1955.08
627.86
89.3556
1551.82
853.246
1182.71
2762.81
2131.77
4088.43
4307.5
263.746
2158.93
746.413
573.062
561.441
3175.5
2008.85
1026.89
1293.48
2422.87
847.589
816.522
732.428
683.945
721.723
679.091
1680.88
615.051
784.186
841.787
1889.24
952.686
1977.22
745.799
725.661
737.535
2212.36
972.108
2169.76
907.55
790.697
982.476
934.545
909.367
1007.12
1001.76
1019.45
1003.7
1598.91
1233.72
1196.86
861.981
913.255
2972.81
2213.86
1695.71
1009.98
1585.18
740.801
1320.09
1791.51
1782.66
1341.57
1793.41
1463.99
1659.25
986.119
1466.12
1665.66
1339.95
2197.52
3169.13
1438.37
3951.71
687.549
1880.26
1157.75
3108.78
1421.2
2097.6
1318.77
850.86
2635.48
970.751
927.88
646.384
713.225
575.31
1564.09
994.287
2977.4
628.084
601.691
901.006
744.636
1448.48
659.698
803.943
2023.51
1672.52
1197.01
1179.33
966.82
1187.7
1016.86
3024.72
1446.64
2995.15
885.943
940.677
1023.34
1193.39
976.094
1229.54
1041.91
1164.81
952.635
1616.62
1877.18
1746.44
1580.16
1393.6
1626.63
1892.08
812.628
940.32
874.83
963.109
588.145
1068.02
1555.74
557.094
1166.85
556.126
1898.55
1494.89
1222.42
636.153
1232.57
830.783
1937.14
1370.49
2013.33
2099.61
2295.45
1677.68
783.046
1404.69
1278.59
1065.19
1012.87
1285.5
1133.78
1131.11
971.285
1194.25
1016.52
1297.91
1095.93
777.922
690.132
1435.81
1117.91
1908.34
1534.15
1260.8
1397.37
1580.19
1176.77
1377.15
1093.69
1433.48
1576.38
1973.04
1336.76
1159.54
1574.14
2519.82
2633.96
4719.33
1431.61
1898.7
1507.11
1872.45
1307.66
1916.09
1621.86
1341.92
1830.24
1562.1
4262.09
2089.58
2097.19
1067.47
1390.27
1066.68
1477.41
1430.95
3185.85
922.532
890.032
1726.07
1099.52
832.444
881.566
1072.51
807.925
860.437
937.948
787.837
783.07
938.836
1631.92
3057.03
1962.4
2907.89
1268.24
1452.87
892.877
776.843
1343.35
1114.01
1822.63
1656.01
1762.62
824.215
910.964
922.897
861.409
660.393
701.567
768.715
3013.63
1304.87
3547.51
931.032
1128.32
827.503
825
962.46
927.628
639.76
1098.57
1354.28
1551.4
1746.1
1551.34
4212.05
968.782
2584.32
967.107
1142.85
759.851
798.481
1303.02
2998.88
1445.25
2868.38
1543.36
2889.79
3405.76
1900.08
758.596
1478.72
672.017
3136.29
2150.45
1597.16
1962.77
1394.73
964.563
1500.8
3162.56
2621.75
2070.04
2093.63
1572.32
798.704
1158.44
1056.92
1022.79
1321.15
1717.09
980.456
929.268
1011.49
953.097
1031.78
1790.66
1376.05
1277.79
2223.99
1173.35
1087.24
1393.43
759.904
1144.94
1221.13
1142.53
1265.88
1337.95
994.819
665.821
806.37
935.882
1115.28
1243.92
1107.73
833.865
1120.72
853.052
772.629
865.835
3510.14
747.222
814.013
739.97
788.721
904.234
856.169
3874.08
1192.47
986.979
863.903
1027.52
963.871
2571.73
688.525
899.833
761.734
761.549
1014.53
1436.56
1225.83
1040.26
1018.48
974.935
1709.78
1204.49
1299.81
1096.03
1058.96
1114.52
1248.8
1191.06
831.88
1837.59
1811.71
2310.23
3114.88
1408.62
364.136
711.395
2855.19
3057.09
476.702
1377.48
343.329
392.012
398.851
873.066
348.156
1318.15
SCALARS SignedDistance double 1
LOOKUP_TABLE default
58.5531
59.5365
47.0381
42.9633
46.4563
57.5588
63.8708
42.5363
64.3291
56.3826
65.1024
63.3041
119.766
55.6824
70.0265
70.772
58.1252
34.4949
39.8839
45.8464
70.0545
70.7852
53.4664
78.3786
44.8002
43.7607
58.4608
62.0348
45.9472
57.7966
58.2895
42.226
57.8787
43.067
35.9269
38.4396
53.754
46.341
47.466
57.3388
53.5145
62.8975
74.9445
87.6423
69.6905
58.5903
65.7743
67.9539
61.6034
63.6759
55.6666
64.1359
59.4584
61.173
71.9281
57.7127
63.1735
66.5007
49.6958
54.9966
50.5464
49.8705
38.5253
42.8512
36.9997
41.4725
55.458
41.7373
45.8024
64.2017
62.4724
57.5427
81.7743
82.3704
83.3998
100.065
64.4695
71.0079
67.0357
54.8419
60.329
62.8683
61.4933
56.4661
47.9103
49.3413
55.092
49.2935
43.6563
45.5718
40.0998
60.9484
60.99
67.666
62.7505
68.903
60.8607
52.4188
49.9305
64.9616
40.4067
42.9359
81.8076
50.1405
53.2022
41.038
41.4508
54.3208
40.9101
51.4013
58.4167
69.4121
68.4969
52.4122
57.6887
50.0973
54.6676
56.9911
31.0052
35.0922
40.7659
51.791
42.8631
29.9852
47.8544
42.272
52.0882
61.823
41.335
37.5808
40.8561
41.0855
60.9489
60.3397
61.1271
47.8656
53.8237
79.9944
59.7338
64.7684
57.7177
59.8785
56.1159
73.4204
63.423
59.6821
60.8704
42.5608
47.5604
47.3974
53.0928
37.407
58.806
58.9224
49.9562
64.6262
46.6341
49.069
42.277
79.9716
68.7352
64.1012
63.3256
68.6806
64.401
109.948
79.8365
88.4969
71.7591
76.9406
72.6935
61.059
63.9855
64.9022
60.6165
62.1977
56.4669
94.7857
67.8546
76.588
59.2908
60.1137
56.4569
65.4162
62.4802
64.4411
55.6669
60.2295
60.0522
71.7641
65.0369
70.0689
65.4432
62.3909
67.3568
67.0872
57.799
62.7864
61.4251
59.5765
62.1899
71.9631
67.1434
65.3534
66.2727
71.5204
61.0865
63.7015
64.3243
60.1241
61.9322
57.3504
67.8428
64.4699
66.698
67.8576
67.9434
60.7195
55.9997
52.6946
51.61
51.001
47.9141
49.4539
42.3963
55.7171
51.6529
39.9219
47.8052
41.9158
51.0007
56.6191
40.4149
37.0874
39.861
35.7621
39.7114
40.8536
39.7817
40.4213
36.9225
57.4814
48.5891
41.2532
49.7209
54.3935
42.5948
43.6814
65.3578
47.9162
52.2082
42.6935
40.4639
46.5752
41.9221
41.994
40.2235
43.9699
65.952
68.3087
62.5433
62.3652
61.4013
65.1609
50.4864
67.2667
59.2516
40.3198
54.5344
51.7018
62.263
69.2553
70.6973
80.4336
92.9866
69.1585
73.8713
105.072
99.1978
92.6455
80.0367
72.2812
66.1955
64.0052
115.716
72.3252
67.0395
65.9735
89.9019
69.9429
73.0641
87.3151
65.7662
61.2073
68.3302
72.4131
69.737
71.5486
76.0833
55.8109
58.3381
58.1244
58.5526
53.647
59.9907
61.9461
60.2698
58.954
56.0649
66.3724
61.4854
65.6184
54.3148
59.4119
58.1737
63.8335
61.3358
65.6706
53.1382
53.3195
51.3228
51.111
46.7837
49.3976
45.7527
58.4965
56.6683
49.3335
52.2828
52.2129
54.0252
52.2039
44.8237
44.7211
42.0745
43.7953
43.585
42.6239
41.3067
43.7982
45.422
48.2243
46.0079
46.6616
63.298
62.2683
64.4424
64.7312
59.8217
62.2353
61.5254
74.8494
74.1198
60.0734
63.0014
59.5053
66.7676
66.6169
55.101
54.5531
50.5492
70.9596
61.2253
66.6463
54.8922
56.673
60.0186
62.3048
61.2232
59.4511
60.7666
65.5251
47.2843
51.9248
58.4587
55.18
52.5611
41.6714
40.5761
45.2973
42.151
43.6728
39.6241
41.5645
82.5878
58.6558
59.0941
53.9331
57.1421
67.6118
47.763
50.559
45.2409
43.1855
44.1948
48.137
39.9154
42.4842
42.3589
38.2897
40.0969
39.7581
43.1451
53.3328
47.1542
52.5935
44.5564
58.1531
48.4401
42.8423
58.7732
59.8602
63.4956
51.2067
57.8837
44.8332
62.3134
64.3897
55.5319
38.4955
47.3794
50.0002
50.8715
71.4577
69.7519
55.3123
56.0678
62.2843
44.6523
51.6263
42.8941
53.5754
55.04
58.2352
45.0744
51.9887
47.8046
56.0829
55.7744
55.3845
42.5889
40.3474
41.9002
31.4358
30.1055
30.8688
40.2786
38.3415
38.7681
52.0444
42.0981
40.5476
71.9313
41.3851
46.1306
52.088
44.3578
73.5624
62.4825
37.6798
40.8281
34.4185
34.9991
30.5858
40.8714
35.9732
43.3949
73.4859
73.4474
72.3683
75.4427
43.9341
43.0679
54.9364
45.4094
55.6381
49.9921
54.3414
41.4603
39.0729
50.0389
43.7941
40.8205
39.9672
43.1359
43.3111
40.5841
42.3175
39.3121
42.0116
44.0136
44.0069
72.9875
72.3915
72.4202
49.9113
61.7095
52.7092
52.6267
57.0209
49.0025
51.9123
45.0263
53.2267
41.914
45.482
44.5349
41.4138
54.5148
48.4293
52.4583
80.5729
74.5585
75.6923
83.3493
67.8944
62.8733
51.6694
73.1799
80.4665
62.381
54.8349
62.9428
57.2317
55.7268
88.086
70.2429
51.8361
56.1358
54.0482
52.1133
51.6576
54.8036
55.8946
65.536
65.5528
78.5494
62.8211
60.9941
64.1516
60.5243
63.5247
58.9136
59.6879
56.6615
57.8702
62.3304
60.7679
63.4945
67.2257
63.7459
60.738
43.1874
41.7136
44.0876
40.9633
43.5987
52.4882
49.0742
50.9622
48.4239
44.3012
52.5846
45.1323
49.2639
49.7405
48.8919
44.5745
46.3524
44.2459
72.6846
45.0548
53.5094
60.1365
59.1367
38.1904
43.364
39.2411
32.609
35.1098
60.8394
59.2117
59.57
57.9743
51.1003
47.9466
51.761
57.9822
75.9972
50.9417
63.062
86.9437
78.6961
46.8879
54.8798
51.0545
45.1908
46.5652
83.5046
73.8891
93.1497
70.8558
59.2822
51.1157
56.7211
57.925
53.98
50.3227
50.9851
48.1947
42.7534
58.2182
45.6108
50.8093
56.1673
52.9418
40.7524
39.5299
40.7733
40.3135
45.2805
46.4807
43.9844
41.4887
61.642
66.0567
61.7592
63.5348
76.5189
68.2998
65.1272
66.3012
70.5698
82.2134
60.9372
67.7745
65.977
63.0009
63.128
87.0849
69.4066
75.9426
