# vtk DataFile Version 4.2
vtk output
ASCII
DATASET POLYDATA
POINTS 642 double
-288.329 497.283 53.9054
288.329 497.283 53.9054
-288.329 -435.771 53.9054
288.329 -435.771 53.9054
0 -257.574 520.432
0 319.085 520.432
0 -257.574 -412.621
0 319.085 -412.621
466.527 30.7559 -234.424
466.527 30.7559 342.235
-466.527 30.7559 -234.424
-466.527 30.7559 342.235
-443.693 304.973 223.381
-274.218 200.232 497.599
-169.476 474.449 328.123
169.476 474.449 328.123
0 579.191 53.9054
169.476 474.449 -220.312
-169.476 474.449 -220.312
-274.218 200.232 -389.788
-443.693 304.973 -115.57
-548.435 30.7559 53.9054
274.218 200.232 497.599
443.693 304.973 223.381
-274.218 -138.72 497.599
0 30.7559 602.341
-443.693 -243.462 -115.57
-443.693 -243.462 223.381
0 30.7559 -494.53
-274.218 -138.72 -389.788
443.693 304.973 -115.57
274.218 200.232 -389.788
443.693 -243.462 223.381
274.218 -138.72 497.599
169.476 -412.937 328.123
-169.476 -412.937 328.123
0 -517.679 53.9054
-169.476 -412.937 -220.312
169.476 -412.937 -220.312
274.218 -138.72 -389.788
443.693 -243.462 -115.57
548.435 30.7559 53.9054
-380.494 415.783 141.996
-322.362 408.184 287.169
-237.96 503.874 196.439
-385.027 118.847 434.399
-377.428 264.019 376.267
-473.118 173.29 291.865
-88.0908 411.249 438.932
-233.263 353.118 431.333
-142.534 268.716 527.023
-89.0987 552.349 198.07
-149.869 558.317 53.9054
88.0908 411.249 438.932
0 497.283 342.235
149.869 558.317 53.9054
89.0987 552.349 198.07
237.96 503.874 196.439
-89.0987 552.349 -90.2593
-237.96 503.874 -88.6284
237.96 503.874 -88.6284
89.0987 552.349 -90.2593
-88.0908 411.249 -331.121
0 497.283 -234.424
88.0908 411.249 -331.121
-322.362 408.184 -179.358
-380.494 415.783 -34.1853
-142.534 268.716 -419.212
-233.263 353.118 -323.523
-473.118 173.29 -184.054
-377.428 264.019 -268.457
-385.027 118.847 -326.588
-466.527 319.085 53.9054
-527.561 30.7559 -95.9635
-521.593 174.921 -35.1933
-521.593 174.921 143.004
-527.561 30.7559 203.774
322.362 408.184 287.169
380.494 415.783 141.996
142.534 268.716 527.023
233.263 353.118 431.333
473.118 173.29 291.865
377.428 264.019 376.267
385.027 118.847 434.399
-144.165 119.855 575.498
0 180.625 581.466
-385.027 -57.3349 434.399
-288.329 30.7559 520.432
0 -119.113 581.466
-144.165 -58.3428 575.498
-142.534 -207.204 527.023
-521.593 -113.409 143.004
-473.118 -111.778 291.865
-473.118 -111.778 -184.054
-521.593 -113.409 -35.1933
-380.494 -354.271 141.996
-466.527 -257.574 53.9054
-380.494 -354.271 -34.1853
-288.329 30.7559 -412.621
-385.027 -57.3349 -326.588
0 180.625 -473.655
-144.165 119.855 -467.687
-142.534 -207.204 -419.212
-144.165 -58.3428 -467.687
0 -119.113 -473.655
233.263 353.118 -323.523
142.534 268.716 -419.212
380.494 415.783 -34.1853
322.362 408.184 -179.358
385.027 118.847 -326.588
377.428 264.019 -268.457
473.118 173.29 -184.054
380.494 -354.271 141.996
322.362 -346.672 287.169
237.96 -442.362 196.439
385.027 -57.3349 434.399
377.428 -202.507 376.267
473.118 -111.778 291.865
88.0908 -349.738 438.932
233.263 -291.606 431.333
142.534 -207.204 527.023
89.0987 -490.837 198.07
149.869 -496.805 53.9054
-88.0908 -349.738 438.932
0 -435.771 342.235
-149.869 -496.805 53.9054
-89.0987 -490.837 198.07
-237.96 -442.362 196.439
89.0987 -490.837 -90.2593
237.96 -442.362 -88.6284
-237.96 -442.362 -88.6284
-89.0987 -490.837 -90.2593
88.0908 -349.738 -331.121
0 -435.771 -234.424
-88.0908 -349.738 -331.121
322.362 -346.672 -179.358
380.494 -354.271 -34.1853
142.534 -207.204 -419.212
233.263 -291.606 -323.523
473.118 -111.778 -184.054
377.428 -202.507 -268.457
385.027 -57.3349 -326.588
466.527 -257.574 53.9054
527.561 30.7559 -95.9635
521.593 -113.409 -35.1933
521.593 -113.409 143.004
527.561 30.7559 203.774
144.165 -58.3428 575.498
288.329 30.7559 520.432
144.165 119.855 575.498
-322.362 -346.672 287.169
-233.263 -291.606 431.333
-377.428 -202.507 376.267
-233.263 -291.606 -323.523
-322.362 -346.672 -179.358
-377.428 -202.507 -268.457
288.329 30.7559 -412.621
144.165 -58.3428 -467.687
144.165 119.855 -467.687
521.593 174.921 143.004
521.593 174.921 -35.1933
466.527 319.085 53.9054
-337.64 460.643 98.376
-313.294 465.473 170.735
-265.685 505.113 125.86
-387.802 360.64 257.785
-355.063 415.927 216.245
-416.072 363.56 183.932
-205.684 493.587 264.293
-283.059 460.428 243.748
-248.984 446.434 310.809
-429.887 75.2265 391.545
-434.717 147.585 367.2
-474.358 102.711 319.59
-329.884 234.636 441.708
-385.171 193.095 408.969
-332.804 160.782 469.977
-462.831 241.143 259.59
-429.672 220.598 336.965
-415.678 287.659 302.89
-44.4706 368.396 483.792
-116.829 344.05 488.622
-71.9549 296.441 528.263
-203.88 418.558 383.79
-162.339 385.819 439.077
-130.026 446.827 386.71
-210.387 236.44 516.736
-189.842 313.815 483.578
-256.903 279.74 469.584
-354.606 340.213 335.459
-309.457 312.309 408.511
-281.553 385.362 363.362
-196.465 537.677 126.11
-221.214 532.598 53.9054
-130.899 519.415 265.704
-165.221 533.256 198.738
-75.6578 573.947 53.9054
-120.72 560.759 126.733
-45.1047 572.439 126.886
44.4706 368.396 483.792
0 416.255 443.997
85.7941 491.539 338.685
44.501 458.647 394.067
130.026 446.827 386.71
-44.501 458.647 394.067
-85.7941 491.539 338.685
221.214 532.598 53.9054
196.465 537.677 126.11
265.685 505.113 125.86
45.1047 572.439 126.886
120.72 560.759 126.733
75.6578 573.947 53.9054
205.684 493.587 264.293
165.221 533.256 198.738
130.899 519.415 265.704
-45.1491 531.468 273.064
45.1491 531.468 273.064
0 559.371 200.011
-196.465 537.677 -18.299
-265.685 505.113 -18.0495
-45.1047 572.439 -19.0754
-120.72 560.759 -18.9226
-205.684 493.587 -156.482
-165.221 533.256 -90.9268
-130.899 519.415 -157.893
265.685 505.113 -18.0495
196.465 537.677 -18.299
130.899 519.415 -157.893
165.221 533.256 -90.9268
205.684 493.587 -156.482
120.72 560.759 -18.9226
45.1047 572.439 -19.0754
-44.4706 368.396 -375.982
0 416.255 -336.186
44.4706 368.396 -375.982
-85.7941 491.539 -230.874
-44.501 458.647 -286.256
-130.026 446.827 -278.899
130.026 446.827 -278.899
44.501 458.647 -286.256
85.7941 491.539 -230.874
0 559.371 -92.2003
45.1491 531.468 -165.253
-45.1491 531.468 -165.253
-313.294 465.473 -62.9238
-337.64 460.643 9.43485
-248.984 446.434 -202.998
-283.059 460.428 -135.937
-416.072 363.56 -76.121
-355.063 415.927 -108.434
-387.802 360.64 -149.974
-71.9549 296.441 -420.452
-116.829 344.05 -380.811
-256.903 279.74 -361.773
-189.842 313.815 -375.767
-210.387 236.44 -408.925
-162.339 385.819 -331.266
-203.88 418.558 -275.979
-474.358 102.711 -211.779
-434.717 147.585 -259.389
-429.887 75.2265 -283.734
-415.678 287.659 -195.079
-429.672 220.598 -229.154
-462.831 241.143 -151.779
-332.804 160.782 -362.166
-385.171 193.095 -301.158
-329.884 234.636 -333.897
-281.553 385.362 -255.551
-309.457 312.309 -300.701
-354.606 340.213 -227.648
-385.499 420.848 53.9054
-460.783 315.535 -31.8887
-427.891 370.917 9.40438
-427.891 370.917 98.4065
-460.783 315.535 139.7
-501.842 30.7559 -167.309
-506.921 102.96 -142.56
-541.683 103.737 8.80077
-530.004 103.584 -66.8145
-543.191 30.7559 -21.7524
-502.5 175.588 -111.316
-488.659 242.555 -76.9934
-506.921 102.96 250.371
-501.842 30.7559 275.12
-488.659 242.555 184.804
-502.5 175.588 219.126
-543.191 30.7559 129.563
-530.004 103.584 174.625
-541.683 103.737 99.0101
-500.712 249.914 8.75628
-528.615 176.862 53.9054
-500.712 249.914 99.0546
313.294 465.473 170.735
337.64 460.643 98.376
248.984 446.434 310.809
283.059 460.428 243.748
416.072 363.56 183.932
355.063 415.927 216.245
387.802 360.64 257.785
71.9549 296.441 528.263
116.829 344.05 488.622
256.903 279.74 469.584
189.842 313.815 483.578
210.387 236.44 516.736
162.339 385.819 439.077
203.88 418.558 383.79
474.358 102.711 319.59
434.717 147.585 367.2
429.887 75.2265 391.545
415.678 287.659 302.89
429.672 220.598 336.965
462.831 241.143 259.59
332.804 160.782 469.977
385.171 193.095 408.969
329.884 234.636 441.708
281.553 385.362 363.362
309.457 312.309 408.511
354.606 340.213 335.459
-72.2044 227.221 560.826
0 251.97 555.747
-211.799 161.655 542.565
-144.832 195.977 556.406
0 106.414 597.097
-72.8281 151.476 583.909
-72.9809 75.8605 595.588
-429.887 -13.7147 391.545
-390.092 30.7559 439.404
-284.78 -55.0383 514.688
-340.161 -13.7452 481.797
-332.804 -99.2706 469.977
-340.161 75.2569 481.797
-284.78 116.55 514.688
0 -190.458 555.747
-72.2044 -165.709 560.826
-71.9549 -234.929 528.263
-72.9809 -14.3488 595.588
-72.8281 -89.964 583.909
0 -44.902 597.097
-210.387 -174.928 516.736
-144.832 -134.465 556.406
-211.799 -100.143 542.565
-219.159 75.905 554.617
-219.159 -14.3933 554.617
-146.106 30.7559 582.521
-506.921 -41.4485 250.371
-474.358 -41.199 319.59
-541.683 -42.225 99.0101
-530.004 -42.0722 174.625
-462.831 -179.631 259.59
-502.5 -114.076 219.126
-488.659 -181.043 184.804
-474.358 -41.199 -211.779
-506.921 -41.4485 -142.56
-488.659 -181.043 -76.9934
-502.5 -114.076 -111.316
-462.831 -179.631 -151.779
-530.004 -42.0722 -66.8145
-541.683 -42.225 8.80077
-337.64 -399.131 98.376
-385.499 -359.336 53.9054
-337.64 -399.131 9.43485
-460.783 -254.024 139.7
-427.891 -309.405 98.4065
-416.072 -302.048 183.932
-416.072 -302.048 -76.121
-427.891 -309.405 9.40438
-460.783 -254.024 -31.8887
-528.615 -115.35 53.9054
-500.712 -188.403 8.75628
-500.712 -188.403 99.0546
-390.092 30.7559 -331.593
-429.887 -13.7147 -283.734
-284.78 116.55 -406.878
-340.161 75.2569 -373.986
-332.804 -99.2706 -362.166
-340.161 -13.7452 -373.986
-284.78 -55.0383 -406.878
0 251.97 -447.936
-72.2044 227.221 -453.016
-72.9809 75.8605 -487.778
-72.8281 151.476 -476.098
0 106.414 -489.286
-144.832 195.977 -448.595
-211.799 161.655 -434.754
-71.9549 -234.929 -420.452
-72.2044 -165.709 -453.016
0 -190.458 -447.936
-211.799 -100.143 -434.754
-144.832 -134.465 -448.595
-210.387 -174.928 -408.925
0 -44.902 -489.286
-72.8281 -89.964 -476.098
-72.9809 -14.3488 -487.778
-219.159 75.905 -446.806
-146.106 30.7559 -474.71
-219.159 -14.3933 -446.806
116.829 344.05 -380.811
71.9549 296.441 -420.452
203.88 418.558 -275.979
162.339 385.819 -331.266
210.387 236.44 -408.925
189.842 313.815 -375.767
[...]
POINT_DATA 642
SCALARS SignedDistance double 1
LOOKUP_TABLE default
349.94
341.318
317.831
299.757
256.245
377.383
388.363
289.011
367.135
375.178
392.14
399.059
439.338
375.586
453.132
445.288
333.549
269.062
281.536
313.558
337.862
449.814
361.915
435.786
303.313
290.211
374.606
362.281
303.19
369.987
329.044
301.88
335.643
288.739
238.998
247.465
315.313
320.627
312.306
359.481
352.179
425.364
390.874
447.524
405.467
383.925
421.932
433.242
417.847
416.759
373.737
397.452
336.328
413.77
445.432
327.051
393.992
399.003
276.745
301.602
285.251
271.654
281.482
273.152
277.094
308.189
331.041
296.457
304.115
372.274
332.444
346.508
376.674
440.747
393.208
446.507
438.968
441.403
385.75
366.071
405.632
412.847
406.405
366.737
332.491
333.088
352.216
341.928
283.594
302.893
263.862
425.01
384.57
418.074
419.592
356.463
379.877
337.871
327.213
375.387
289.796
295.008
375.998
327.853
342.259
292.18
290.306
324.716
294.995
326.319
319.961
361.003
335.218
274.132
285.503
332.295
294.359
356.558
226.302
242.951
257.699
278.986
296.603
230.814
248.753
303.144
281.462
297.925
299.628
291.62
306.169
300.475
352.185
333.029
352.905
319.114
314.242
371.184
351.246
399.501
372.382
357.776
356.4
415.562
395.864
402.593
410.89
292.091
326.437
322.774
293.174
256.526
316.783
362.3
338.272
388.171
314.407
322.995
289.053
439.702
389.795
372.777
369.394
396.623
376.601
442.514
419.275
414.313
434.982
426.691
452.623
390.731
408.248
415.652
398.402
402.384
378.903
451.159
427.132
445.736
397.9
395.844
375.196
437.589
417.1
437.453
373.908
395.037
395.736
443.498
418.901
440.846
373.378
345.351
431.607
403.795
330.232
366.218
363.239
395.999
413.417
444.712
431.139
430.867
433.199
448.791
333.547
363.65
369.051
363.144
359.879
327.204
429.121
396.181
426.305
428.898
428.475
398.243
314.289
324.202
299.584
302.765
288.042
286.442
273.672
311.542
300.853
264.103
273.946
272.683
294.97
299.839
284.212
278.42
282.358
270.168
274.355
280.186
271.871
273.639
265.61
280.264
268.433
268.015
317.22
338.299
297.019
304.097
331.049
316.395
320.841
292.436
290.688
312.696
300.937
303.09
291.643
293.738
390.254
368.371
367.744
332.742
348.634
350.271
328.206
347.357
329.524
305.356
317.085
316.919
358.319
350.845
351.797
381.926
407.025
415.994
407.446
435.108
417.933
452.162
379.984
359.781
434.962
418.211
438.985
453.653
446.99
454.624
457.822
378.87
417.515
407.818
391.229
363.32
444.847
422.003
410.084
414.672
437.62
371.94
390.161
383.162
385.332
362.697
409.1
427.807
393.662
389.586
370.723
429.623
409.821
432.126
363.483
385.871
383.483
428.51
405.229
429.299
353.171
355.197
353.865
352.543
311.043
330.924
310.557
377.889
369.487
327.106
348.837
326.424
362.303
357.401
278.447
281.037
254.333
290.744
290.683
277.813
280.714
289.748
304.012
335.718
320.514
312.902
416.735
394.621
436.671
432.988
371.954
411.623
400.649
412.364
435.84
395.933
417.786
395.335
437.909
438.218
336.457
344.237
325.211
392.004
367.916
357.501
355.07
357.368
373.551
424.754
397.559
408.089
357.252
382.412
315.905
334.267
371.205
349.979
346.461
293.364
292.41
296.405
291.143
289.477
293.792
300.391
381.388
357.445
365.74
346.88
350.89
371.799
321.49
333.806
314.567
307.328
307.056
324.143
285.058
289.662
281.127
282.633
294.206
291.174
300.444
331.033
306.398
309.195
305.325
324.245
288.898
281.76
343.518
345.73
363.539
315.331
329.931
312.861
341.556
338.351
320.964
292.309
304.015
304.02
315.963
308.867
310.879
301.923
301.096
334.381
257.498
273.699
252.398
354.185
340.83
368.85
286.863
312.562
308.366
344.445
323.832
311.027
238.336
235.064
252.288
234.884
229.616
227.657
271.542
245.022
262.143
280.147
265.922
253.449
307.137
294.605
253.756
279.345
306.029
309.434
317.973
236.688
239.876
239.629
232.369
234.841
234.069
236.434
307.543
316.363
325.683
316.638
312.67
306.029
269.006
286.301
258.896
256.575
254.905
290.006
288.074
291.056
305.863
293.765
299.09
291.106
301.446
307.833
299.187
306.711
299.545
310.736
297.593
304.718
375.899
364.194
374.683
321.813
342.569
330.051
334.843
341.147
322.424
311.005
313.362
314.922
298.975
303.712
312.015
302.571
330.91
313.589
332.649
379.238
371.227
375.461
371.35
364.298
348.31
329.392
388.728
383.948
360.927
360.149
386.092
376.65
357.316
381.801
380.369
332.755
358.914
343.441
320.644
350.227
332.668
343.611
368.161
389.067
410.568
415.912
416.748
427.544
396.755
375.305
388.652
392.241
373.789
383.354
423.708
409.84
409.808
373.972
401.807
386.293
280.968
295.482
285.34
283.382
283.087
349.945
343.089
346.127
329.633
313.09
349.286
304.123
325.834
343.98
341.989
306.315
322.649
301.646
324.986
266.185
292.727
323.241
326.256
241.707
275.67
255.577
239.41
246.571
365.383
335.465
350.704
336.028
306.436
269.564
283.529
300.609
374.395
339.715
355.082
378.67
385.322
318.965
354.854
335.505
320.044
326.41
404.037
392.951
398.059
402.429
379.801
348.106
362.298
373.422
337.434
334.783
334.482
316.89
303.109
355.09
311.429
331.331
345.99
339.145
289.435
292.148
288.436
286.541
291.188
315.746
301.723
298.117
410.135
433.702
428.59
429.884
437.063
387.895
356.58
372.231
409.885
427.846
352.517
403.527
377.138
346.568
346.75
414.383
376.979
406.073
SCALARS CoVolArea double 1
LOOKUP_TABLE default
4553.24
4553.24
4553.24
4553.24
4553.24
4553.24
4553.24
4553.24
4553.24
4553.24
4553.24
4553.24
5898.3
5898.3
5898.3
5898.3
5898.3
5898.3
5898.3
5898.3
5898.3
5898.3
5898.3
5898.3
5898.3
5898.3
5898.3
5898.3
5898.3
5898.3
5898.3
5898.3
5898.3
5898.3
5898.3
5898.3
5898.3
5898.3
5898.3
5898.3
5898.3
5898.3
5594.17
6174.67
5594.17
5594.17
6174.67
5594.17
5594.17
6174.67
5594.17
6174.67
5594.17
5594.17
6174.67
5594.17
6174.67
5594.17
6174.67
5594.17
5594.17
6174.67
5594.17
6174.67
5594.17
6174.67
5594.17
5594.17
6174.67
5594.17
6174.67
5594.17
6174.67
5594.17
6174.67
6174.67
5594.17
6174.67
5594.17
5594.17
6174.67
5594.17
6174.67
5594.17
6174.67
5594.17
5594.17
6174.67
5594.17
6174.67
5594.17
6174.67
5594.17
5594.17
6174.67
5594.17
6174.67
5594.17
6174.67
5594.17
5594.17
6174.67
5594.17
6174.67
5594.17
6174.67
5594.17
5594.17
6174.67
5594.17
6174.67
5594.17
5594.17
6174.67
5594.17
5594.17
6174.67
5594.17
5594.17
6174.67
5594.17
6174.67
5594.17
5594.17
6174.67
5594.17
6174.67
5594.17
6174.67
5594.17
5594.17
6174.67
5594.17
6174.67
5594.17
6174.67
5594.17
5594.17
6174.67
5594.17
6174.67
5594.17
6174.67
5594.17
6174.67
6174.67
5594.17
6174.67
6174.67
6174.67
6174.67
6174.67
6174.67
6174.67
6174.67
6174.67
6174.67
6174.67
6174.67
6174.67
6174.67
6174.67
5494.21
5645.08
5494.21
6102.85
5671.27
5556.94
5556.94
5671.27
6102.85
5494.21
5645.08
5494.21
6102.85
5671.27
5556.94
5556.94
5671.27
6102.85
5494.21
5645.08
5494.21
6102.85
5671.27
5556.94
5556.94
5671.27
6102.85
6822.18
6822.18
6822.18
5645.08
5494.21
6102.85
5671.27
5556.94
5671.27
6102.85
5494.21
5645.08
6102.85
5671.27
5556.94
5671.27
6102.85
5494.21
5645.08
5494.21
6102.85
5671.27
5556.94
5556.94
5671.27
6102.85
6822.18
6822.18
6822.18
5645.08
5494.21
6102.85
5671.27
5556.94
5671.27
6102.85
5494.21
5645.08
6102.85
5671.27
5556.94
5671.27
6102.85
5494.21
5645.08
5494.21
6102.85
5671.27
5556.94
5556.94
5671.27
6102.85
6822.18
6822.18
6822.18
5645.08
5494.21
6102.85
5671.27
5556.94
5671.27
6102.85
5494.21
5645.08
6102.85
5671.27
5556.94
5671.27
6102.85
5494.21
5645.08
5494.21
6102.85
5671.27
5556.94
5556.94
5671.27
6102.85
6822.18
6822.18
6822.18
5645.08
6102.85
5671.27
5671.27
6102.85
5494.21
5645.08
6102.85
5671.27
5556.94
5671.27
6102.85
5645.08
5494.21
6102.85
5671.27
5556.94
5671.27
6102.85
6822.18
6822.18
6822.18
5645.08
5494.21
6102.85
5671.27
5556.94
5671.27
6102.85
5494.21
5645.08
6102.85
5671.27
5556.94
5671.27
6102.85
5494.21
5645.08
5494.21
6102.85
5671.27
5556.94
5556.94
5671.27
6102.85
6822.18
6822.18
6822.18
5645.08
5494.21
6102.85
5671.27
5556.94
5671.27
6102.85
5494.21
5645.08
6102.85
5671.27
5556.94
5671.27
6102.85
5494.21
5645.08
5494.21
6102.85
5671.27
5556.94
5556.94
5671.27
6102.85
6822.18
6822.18
6822.18
5645.08
5494.21
6102.85
5671.27
5556.94
5671.27
6102.85
5494.21
5645.08
6102.85
5671.27
5556.94
5671.27
6102.85
5494.21
5645.08
5494.21
6102.85
5671.27
5556.94
5556.94
5671.27
6102.85
6822.18
6822.18
6822.18
5645.08
5494.21
6102.85
5671.27
5556.94
5671.27
6102.85
5494.21
5645.08
6102.85
5671.27
5556.94
5671.27
6102.85
5494.21
5645.08
5494.21
6102.85
5671.27
5556.94
5556.94
5671.27
6102.85
6822.18
6822.18
6822.18
5645.08
5494.21
6102.85
5671.27
5556.94
5671.27
6102.85
5494.21
5645.08
6102.85
5671.27
5556.94
5671.27
6102.85
5494.21
5645.08
5494.21
6102.85
5671.27
5556.94
5556.94
5671.27
6102.85
6822.18
6822.18
6822.18
5494.21
5645.08
5494.21
6102.85
5671.27
5556.94
5556.94
5671.27
6102.85
5494.21
5645.08
5494.21
6102.85
5671.27
5556.94
5556.94
5671.27
6102.85
5494.21
5645.08
5494.21
6102.85
5671.27
5556.94
5556.94
5671.27
6102.85
6822.18
6822.18
6822.18
5645.08
5494.21
6102.85
5671.27
5556.94
5671.27
6102.85
5494.21
5645.08
6102.85
5671.27
5556.94
5671.27
6102.85
5494.21
5645.08
5494.21
6102.85
5671.27
5556.94
5556.94
5671.27
6102.85
6822.18
6822.18
6822.18
5645.08
5494.21
6102.85
5671.27
5556.94
5671.27
6102.85
5494.21
5645.08
6102.85
5671.27
5556.94
5671.27
6102.85
5494.21
5645.08
5494.21
6102.85
5671.27
5556.94
5556.94
5671.27
6102.85
6822.18
6822.18
6822.18
5645.08
5494.21
6102.85
5671.27
5556.94
5671.27
6102.85
5494.21
5645.08
6102.85
5671.27
5556.94
5671.27
6102.85
5494.21
5645.08
5494.21
6102.85
5671.27
5556.94
5556.94
5671.27
6102.85
6822.18
6822.18
6822.18
5645.08
6102.85
5671.27
5671.27
6102.85
5494.21
5645.08
6102.85
5671.27
5556.94
5671.27
6102.85
5645.08
5494.21
6102.85
5671.27
5556.94
5671.27
6102.85
6822.18
6822.18
6822.18
5645.08
6102.85
5671.27
5671.27
6102.85
5645.08
6102.85
5671.27
5671.27
6102.85
5645.08
6102.85
5671.27
5671.27
6102.85
6822.18
6822.18
6822.18
5645.08
6102.85
5671.27
5671.27
6102.85
5645.08
6102.85
5671.27
5671.27
6102.85
5645.08
6102.85
5671.27
5671.27
6102.85
6822.18
6822.18
6822.18
5645.08
6102.85
5671.27
5671.27
6102.85
5645.08
6102.85
5671.27
5671.27
6102.85
5645.08
6102.85
5671.27
5671.27
6102.85
6822.18
6822.18
6822.18
5645.08
6102.85
5671.27
5671.27
6102.85
5645.08
6102.85
5671.27
5671.27
6102.85
5645.08
6102.85
5671.27
5671.27
6102.85
6822.18
6822.18
6822.18
5645.08
6102.85
5671.27
5671.27
6102.85
5645.08
6102.85
5671.27
5671.27
6102.85
5645.08
6102.85
5671.27
5671.27
6102.85
6822.18
6822.18
6822.18
SCALARS Mean_Curvature double 1
LOOKUP_TABLE default
0.00416827
0.00416827
0.00416827
0.00416827
0.00416827
0.00416827
0.00416827
0.00416827
0.00416827
0.00416827
0.00416827
0.00416827
0.00363077
0.00363077
0.00363077
0.00363077
0.00363077
0.00363077
0.00363077
0.00363077
0.00363077
0.00363077
0.00363077
0.00363077
0.00363077
0.00363077
0.00363077
0.00363077
0.00363077
0.00363077
0.00363077
0.00363077
0.00363077
0.00363077
0.00363077
0.00363077
0.00363077
0.00363077
0.00363077
0.00363077
0.00363077
0.00363077
0.00363055
0.00364655
0.00363055
0.00363055
0.00364655
0.00363055
0.00363055
0.00364655
0.00363055
0.00364655
0.00363055
0.00363055
0.00364655
0.00363055
0.00364655
0.00363055
0.00364655
0.00363055
0.00363055
0.00364655
0.00363055
0.00364655
0.00363055
0.00364655
0.00363055
0.00363055
0.00364655
0.00363055
0.00364655
0.00363055
0.00364655
0.00363055
0.00364655
0.00364655
0.00363055
0.00364655
0.00363055
0.00363055
0.00364655
0.00363055
0.00364655
0.00363055
0.00364655
0.00363055
0.00363055
0.00364655
0.00363055
0.00364655
0.00363055
0.00364655
0.00363055
0.00363055
0.00364655
0.00363055
0.00364655
0.00363055
0.00364655
0.00363055
0.00363055
0.00364655
0.00363055
0.00364655
0.00363055
0.00364655
0.00363055
0.00363055
0.00364655
0.00363055
0.00364655
0.00363055
0.00363055
0.00364655
0.00363055
0.00363055
0.00364655
0.00363055
0.00363055
0.00364655
0.00363055
0.00364655
0.00363055
0.00363055
0.00364655
0.00363055
0.00364655
0.00363055
0.00364655
0.00363055
0.00363055
0.00364655
0.00363055
0.00364655
0.00363055
0.00364655
0.00363055
0.00363055
0.00364655
0.00363055
0.00364655
0.00363055
0.00364655
0.00363055
0.00364655
0.00364655
0.00363055
0.00364655
0.00364655
0.00364655
0.00364655
0.00364655
0.00364655
0.00364655
0.00364655
0.00364655
0.00364655
0.00364655
0.00364655
0.00364655
0.00364655
0.00364655
0.0036372
0.0036448
0.0036372
0.00364087
0.00363822
0.00363728
0.00363728
0.00363822
0.00364087
0.0036372
0.0036448
0.0036372
0.00364087
0.00363822
0.00363728
0.00363728
0.00363822
0.00364087
0.0036372
0.0036448
0.0036372
0.00364087
0.00363822
0.00363728
0.00363728
0.00363822
0.00364087
0.00363947
0.00363947
0.00363947
0.0036448
0.0036372
0.00364087
0.00363822
0.00363728
0.00363822
0.00364087
0.0036372
0.0036448
0.00364087
0.00363822
0.00363728
0.00363822
0.00364087
0.0036372
0.0036448
0.0036372
0.00364087
0.00363822
0.00363728
0.00363728
0.00363822
0.00364087
0.00363947
0.00363947
0.00363947
0.0036448
0.0036372
0.00364087
0.00363822
0.00363728
0.00363822
0.00364087
0.0036372
0.0036448
0.00364087
0.00363822
0.00363728
0.00363822
0.00364087
0.0036372
0.0036448
0.0036372
0.00364087
0.00363822
0.00363728
0.00363728
0.00363822
0.00364087
0.00363947
0.00363947
0.00363947
0.0036448
0.0036372
0.00364087
0.00363822
0.00363728
0.00363822
0.00364087
0.0036372
0.0036448
0.00364087
0.00363822
0.00363728
0.00363822
0.00364087
0.0036372
0.0036448
0.0036372
0.00364087
0.00363822
0.00363728
0.00363728
0.00363822
0.00364087
0.00363947
0.00363947
0.00363947
0.0036448
0.00364087
0.00363822
0.00363822
0.00364087
0.0036372
0.0036448
0.00364087
0.00363822
0.00363728
0.00363822
0.00364087
0.0036448
0.0036372
0.00364087
0.00363822
0.00363728
0.00363822
0.00364087
0.00363947
0.00363947
0.00363947
0.0036448
0.0036372
0.00364087
0.00363822
0.00363728
0.00363822
0.00364087
0.0036372
0.0036448
0.00364087
0.00363822
0.00363728
0.00363822
0.00364087
0.0036372
0.0036448
0.0036372
0.00364087
0.00363822
0.00363728
0.00363728
0.00363822
0.00364087
0.00363947
0.00363947
0.00363947
0.0036448
0.0036372
0.00364087
0.00363822
0.00363728
0.00363822
0.00364087
0.0036372
0.0036448
0.00364087
0.00363822
0.00363728
0.00363822
0.00364087
0.0036372
0.0036448
0.0036372
0.00364087
0.00363822
0.00363728
0.00363728
0.00363822
0.00364087
0.00363947
0.00363947
0.00363947
0.0036448
0.0036372
0.00364087
0.00363822
0.00363728
0.00363822
0.00364087
0.0036372
0.0036448
0.00364087
0.00363822
0.00363728
0.00363822
0.00364087
0.0036372
0.0036448
0.0036372
0.00364087
0.00363822
0.00363728
0.00363728
0.00363822
0.00364087
0.00363947
0.00363947
0.00363947
0.0036448
0.0036372
0.00364087
0.00363822
0.00363728
0.00363822
0.00364087
0.0036372
0.0036448
0.00364087
0.00363822
0.00363728
0.00363822
0.00364087
0.0036372
0.0036448
0.0036372
0.00364087
0.00363822
0.00363728
0.00363728
0.00363822
0.00364087
0.00363947
0.00363947
0.00363947
0.0036448
0.0036372
0.00364087
0.00363822
0.00363728
0.00363822
0.00364087
0.0036372
0.0036448
0.00364087
0.00363822
0.00363728
0.00363822
0.00364087
0.0036372
0.0036448
0.0036372
0.00364087
0.00363822
0.00363728
0.00363728
0.00363822
0.00364087
0.00363947
0.00363947
0.00363947
0.0036372
0.0036448
0.0036372
0.00364087
0.00363822
0.00363728
0.00363728
0.00363822
0.00364087
0.0036372
0.0036448
0.0036372
0.00364087
0.00363822
0.00363728
0.00363728
0.00363822
0.00364087
0.0036372
0.0036448
0.0036372
0.00364087
0.00363822
0.00363728
0.00363728
0.00363822
0.00364087
0.00363947
0.00363947
0.00363947
0.0036448
0.0036372
0.00364087
0.00363822
0.00363728
0.00363822
0.00364087
0.0036372
0.0036448
0.00364087
0.00363822
0.00363728
0.00363822
0.00364087
0.0036372
0.0036448
0.0036372
0.00364087
0.00363822
0.00363728
0.00363728
0.00363822
0.00364087
0.00363947
0.00363947
0.00363947
0.0036448
0.0036372
0.00364087
0.00363822
0.00363728
0.00363822
0.00364087
0.0036372
0.0036448
0.00364087
0.00363822
0.00363728
0.00363822
0.00364087
0.0036372
0.0036448
0.0036372
0.00364087
0.00363822
0.00363728
0.00363728
0.00363822
0.00364087
0.00363947
0.00363947
0.00363947
0.0036448
0.0036372
0.00364087
0.00363822
0.00363728
0.00363822
0.00364087
0.0036372
0.0036448
0.00364087
0.00363822
0.00363728
0.00363822
0.00364087
0.0036372
0.0036448
0.0036372
0.00364087
0.00363822
0.00363728
0.00363728
0.00363822
0.00364087
0.00363947
0.00363947
0.00363947
0.0036448
0.00364087
0.00363822
0.00363822
0.00364087
0.0036372
0.0036448
0.00364087
0.00363822
0.00363728
0.00363822
0.00364087
0.0036448
0.0036372
0.00364087
0.00363822
0.00363728
0.00363822
0.00364087
0.00363947
0.00363947
0.00363947
0.0036448
0.00364087
0.00363822
0.00363822
0.00364087
0.0036448
0.00364087
0.00363822
0.00363822
0.00364087
0.0036448
0.00364087
0.00363822
0.00363822
0.00364087
0.00363947
0.00363947
0.00363947
0.0036448
0.00364087
0.00363822
0.00363822
0.00364087
0.0036448
0.00364087
0.00363822
0.00363822
0.00364087
0.0036448
0.00364087
0.00363822
0.00363822
0.00364087
0.00363947
0.00363947
0.00363947
0.0036448
0.00364087
0.00363822
0.00363822
0.00364087
0.0036448
0.00364087
0.00363822
0.00363822
0.00364087
0.0036448
0.00364087
0.00363822
0.00363822
0.00364087
0.00363947
0.00363947
0.00363947
0.0036448
0.00364087
0.00363822
0.00363822
0.00364087
0.0036448
0.00364087
0.00363822
0.00363822
0.00364087
0.0036448
0.00364087
0.00363822
0.00363822
0.00364087
0.00363947
0.00363947
0.00363947
0.0036448
0.00364087
0.00363822
0.00363822
0.00364087
0.0036448
0.00364087
0.00363822
0.00363822
0.00364087
0.0036448
0.00364087
0.00363822
0.00363822
0.00364087
0.00363947
0.00363947
0.00363947
