# vtk DataFile Version 4.2
vtk output
ASCII
DATASET POLYDATA
POINTS 642 double
-124.456 240.143 -12.5852
122.513 250.011 -16.5206
-116.9 -211.925 39.7162
135.417 -219.537 40.0787
1.26973 -176.147 302.071
3.64841 92.3836 267.474
3.11978 -66.4114 -99.2785
2.88442 193.505 -183.033
158.682 65.937 -118.286
158.888 -0.531602 205.582
-132.831 63.9588 -115.896
-133.912 4.26132 205.186
-153.958 155.057 46.2592
-87.0146 56.3607 260.518
-29.5256 140.044 114.009
41.7409 140.772 120.061
0.905746 287.449 -33.6003
84.9837 293.48 -97.0706
-71.036 286.484 -94.1913
-109.846 116.124 -182.578
-178.489 190.795 -39.4591
-142.752 22.6003 28.6597
98.7385 60.7353 266.95
122.352 122.918 53.7742
-112.732 -99.6939 283.154
7.70984 -4.84018 342.804
-143.274 -131.171 -7.39115
-129.889 -138.095 191.796
5.20738 64.0609 -221.6
-88.1821 12.0673 -162.855
174.264 191.698 -51.0506
122.226 118.306 -185.91
155.364 -139.642 197.461
129.911 -100.667 286.637
95.822 -233.756 239.847
-85.378 -230.01 238.775
0.0720958 -230.954 37.0916
-79.8621 -203.303 -51.4534
94.1521 -205.05 -52.6939
99.8737 9.63241 -165.236
160.628 -141.622 -9.69468
163.333 2.62751 58.4774
-147.219 199.576 4.27722
-107.883 127.31 60.5872
-104.465 225.954 4.43315
-118.07 30.2425 236.587
-104.178 63.5969 205.911
-119.615 46.0934 178.262
-16.9502 110.544 226.399
-61.9275 89.3086 228.894
-43.2351 78.5216 271.583
-27.3878 249.59 10.5788
-51.065 283.43 -28.081
29.3794 113.517 225.559
6.16782 138.348 125.478
66.9912 287.761 -28.6875
40.597 249.461 11.3213
98.6986 230.947 1.92589
-43.7685 310.306 -58.692
-93.2035 270.735 -52.5838
100.889 290.366 -58.8949
56.1067 311.2 -58.9994
-39.2553 246.124 -149.392
2.06849 292.34 -98.805
47.7796 248.146 -151.463
-149.217 230.5 -69.5499
-163.217 217.993 -29.6076
-65.6858 153.627 -193.367
-98.8279 206.088 -135.931
-160.972 175.258 -59.9402
-152.273 176.182 -94.2516
-132.378 84.7168 -145.691
-178.674 187.761 -10.3031
-129.289 86.3547 -15.0703
-177.418 174.765 -33.6729
-137.814 168.157 46.2819
-136.132 -1.07699 138.951
89.7231 137.407 82.1099
144.363 213.147 -3.13251
56.1563 79.7002 274.625
72.1904 94.2604 232.859
145.31 35.8946 182.652
116.382 65.382 215.435
133.328 31.0342 241.861
-45.0265 35.1829 307.649
4.92707 53.3965 309.805
-126.682 -51.5371 246.655
-101.627 4.54229 280.277
4.26787 -47.727 336.435
-49.6567 -33.7052 320.615
-73.7601 -143.147 307.732
-147.54 -51.3504 97.4466
-133.212 -72.8952 209.298
-123.103 -52.5713 -48.5506
-147.371 -73.1592 17.33
-140.085 -145.279 117.229
-145.527 -135.986 30.2074
-136.782 -176.567 9.22
-109.66 59.3748 -183.666
-122.149 37.9267 -136.676
4.1979 105.813 -225.268
-66.7943 89.2928 -216.447
-65.7655 -31.9337 -147.478
-60.8531 29.8922 -201.257
2.45148 13.0152 -196.727
108.248 213.112 -143.409
73.2381 156.839 -194.343
164.156 225.3 -30.2936
154.187 239.424 -76.2541
155.976 82.2293 -149.625
161.347 171.351 -104.012
162.173 135.793 -70.4378
158.447 -150.244 114.972
145.312 -190.309 215.926
110.855 -218.994 179.159
148.289 -51.5643 250.774
157.72 -128.633 242.699
158.716 -77.731 208.798
62.63 -214.209 296.479
121.379 -181.642 284.264
82.5063 -148.21 308.048
60.0667 -237.818 194.939
91.9594 -237.368 40.2525
-55.3404 -212.555 294.113
1.64839 -232.161 239.109
-78.3577 -236.292 41.117
-54.334 -236.543 192.182
-95.9242 -217.717 174.252
65.2892 -236.528 -13.6799
122.289 -227.117 -13.6535
-106.369 -220.944 -11.2865
-58.4961 -236.376 -13.4622
63.1691 -164.611 -74.1206
0.574286 -198.735 -49.9136
-55.2218 -163.339 -74.6999
141.527 -183.54 -36.3178
157.507 -188.37 6.91679
77.8556 -35.4109 -149.255
97.0229 -152.75 -74.6868
145.969 -41.7859 -49.954
137.084 -105.377 -51.2094
143.585 38.5714 -138.694
163.647 -141.761 30.7259
142.299 61.0497 -44.6996
163.741 -86.3261 20.5961
163.824 -54.2566 101.869
160.244 4.57173 152.489
56.348 -27.1357 330.98
113.662 3.1746 287.081
55.0227 34.0937 313.72
-124.965 -182.325 216.026
-110.572 -177.049 278.818
-131.948 -131.255 239.913
-84.3136 -146.955 -75.0535
-122.589 -175.653 -32.5564
-124.2 -96.6987 -47.5584
125.326 59.775 -186.691
67.683 28.4627 -202.901
69.8002 89.016 -220.075
163.343 81.5936 47.9501
169.488 169.3 -31.2222
165.633 193.436 -24.5525
-137.196 220.881 -3.13623
-127.387 215.372 5.88326
-114.867 233.609 -2.13122
-148.913 138.79 61.4021
-137.826 192.842 10.8183
-155.273 174.67 12.5174
-73.7588 207.485 20.776
-115.743 205.662 13.2879
-68.1357 135.16 88.1242
-127.94 17.0009 220.457
-122.285 34.1096 211.14
-128.987 20.0571 197.857
-98.8206 60.0138 235.57
-111.605 48.594 224.553
-104.817 43.2628 249.994
-133.832 103.728 118.256
-112.74 56.657 190.629
-128.086 83.5348 139.34
-6.91339 102.906 247.39
-30.1676 94.9898 250.44
-16.3483 86.3167 270.916
-47.9324 104.83 206.298
-39.7825 100.937 229.148
-25.24 115.216 206.333
-65.6333 68.5138 267.978
-54.5393 85.1578 250.806
-74.8536 75.0253 246.78
-91.0318 86.7272 160.958
-86.1312 76.8708 218.41
-74.7951 92.4852 188.598
-75.828 249.524 -11.6334
-87.2551 259.393 -25.0569
-28.6392 217.882 36.4957
-55.3106 238.872 5.11097
-36.879 289.829 -29.1015
-40.7147 270.046 -13.2113
-24.0864 271.307 -9.58315
16.1341 103.739 246.926
5.16157 113.334 227.467
30.2955 137.709 126.777
17.7693 119.832 208.057
38.7713 118.977 205.342
-4.80712 119.526 208.689
-12.7946 139.368 123.091
87.7147 272.817 -26.1592
78.9804 262.277 -14.2637
113.412 243.156 -9.18283
32.2967 270.399 -10.6163
57.4409 272.543 -13.8399
49.3906 291.662 -30.2886
69.0534 207.564 32.9206
61.2168 246.498 5.35969
38.5109 217.147 40.2452
-7.16111 216.302 47.6285
16.036 214.918 49.4483
1.47397 247.888 18.9035
-69.5669 284.716 -43.9524
-115.721 257.182 -31.9067
-27.6392 304.18 -48.1642
-46.574 301.861 -48.578
-82.0502 287.48 -70.9687
-60.4705 302.511 -60.31
-58.0221 308.001 -71.4002
109.625 270.101 -43.8703
82.8048 295.536 -46.7502
72.9869 312.395 -72.6846
78.8624 307.223 -60.0519
96.2577 299.063 -72.0287
62.647 303.584 -48.1708
35.1726 303.484 -49.5629
-19.2196 223.066 -169.562
2.62334 248.79 -155.229
25.3622 224.276 -170.924
-44.4771 296.838 -101.781
-23.7357 272.196 -126.204
-55.2136 269.239 -119.658
68.0206 272.943 -121.228
30.1678 272.064 -126.585
54.6891 298.045 -101.714
2.46819 305.716 -58.604
33.9048 312.023 -74.3812
-26.995 313.076 -74.6157
-140.889 244.354 -35.8509
-145.285 231.623 -22.7646
-110.901 258.84 -81.1511
-127.104 254.262 -56.9174
-178.497 201.177 -33.9786
-160.281 226.564 -42.9982
-172.948 206.384 -52.8604
-35.048 175.097 -188.343
-50.9721 206.998 -172.064
-103.424 160.403 -160.185
-78.3644 182.922 -169.38
-90.6888 133.236 -192.519
-66.8862 230.567 -148.019
-83.5629 245.94 -114.675
-137.312 104.206 -93.8635
-139.165 121.004 -102.974
-134.265 73.5517 -129.905
-168.374 187.805 -64.1875
-157.859 180.32 -77.9979
-183.203 189.208 -46.2111
-122.789 99.9632 -165.554
-135.105 133.15 -117.713
-125.831 140.889 -137.55
-131.554 224.27 -102.075
-135.859 187.69 -116.243
-159.213 200.968 -84.5942
-156.236 211.224 -11.7013
-185.036 193.343 -29.1132
-174.771 195.625 -21.8222
-163.654 186.992 -1.95929
-168.447 175.782 11.2858
-133.197 70.7004 -92.4543
-148.91 145.633 -44.9521
-170.643 131.102 -17.3368
-172.185 144.153 -21.7434
-152.312 57.2033 13.9772
-178.569 177.747 -32.1454
-180.287 183.9 -30.1515
-128.586 23.7385 171.3
-134.058 4.79484 188.317
-154.667 157.442 39.9314
-117.924 80.6127 108.806
-142.907 -1.98826 82.1712
-131.704 38.6512 103.716
-155.391 68.3906 7.09047
-188.613 194.542 -27.9975
-177.031 170.858 -41.4172
-176.852 186.113 -5.45747
129.464 222.069 2.52537
139.848 227.488 -5.49835
64.2589 140.286 104.74
109.319 204.215 16.3542
142.876 197.625 0.463237
131.071 204.629 7.11943
108.497 133.146 62.5584
26.5048 86.6218 271.658
42.5461 97.0292 251.105
86.0336 78.2752 252.682
66.8208 87.6296 254.173
77.7846 71.6666 273.226
51.9082 105.589 229.373
57.0752 111.721 208.38
154.518 17.1884 194.816
142.037 32.7994 212.762
148.858 12.9156 223.087
118.727 75.163 170.254
131.973 52.5558 198.835
129.386 64.9109 152.178
117.406 47.7017 256.645
124.978 50.1166 231.44
110.215 63.2279 243.541
82.2368 99.8345 200.04
95.9678 81.2192 226.416
102.985 87.8122 185.183
-17.6108 68.6717 291.524
3.7644 76.6209 289.149
-69.7025 49.5964 284.104
-46.4999 59.777 290.498
6.45865 23.8188 328.849
-17.987 42.8955 312.25
-15.7939 15.2938 329.657
-132.449 -19.8034 226.508
-124.383 2.95446 241.815
-105.778 -45.8891 280.12
-116.753 -21.246 262.691
-122.964 -77.0251 265.031
-111.563 20.3874 259.152
-96.8239 32.8937 271.326
-1.53875 -117.648 306.656
-41.8341 -102.602 310.951
-48.9981 -159.81 308.685
-12.2811 -11.4101 340.341
-20.1212 -38.7469 333.431
7.71059 -17.684 348.566
-94.8509 -122.972 298.025
-68.2722 -88.1916 310.781
-86.9946 -71.7116 302.072
-75.9283 21.089 296.466
-80.4029 -16.1345 302.877
-44.0732 4.30951 321.081
-134.88 -21.5278 174.874
-134.136 -29.8176 206.043
-148.893 -23.5161 73.4967
-145.525 -24.7704 112.988
-132.416 -114.608 201.777
-134.304 -62.9317 160.885
-133.792 -95.4423 148.078
-123.533 29.7096 -101.473
-125.485 -0.504713 -48.2951
-147.026 -106.73 4.59481
-144.071 -76.6815 -1.41171
-139.93 -106.608 -16.983
-142.297 -25.4136 19.6862
-148.077 -24.5864 38.2254
-119.255 -195.572 66.1829
-135.388 -176.252 34.9969
-129.218 -196.863 20.9614
-131.424 -149.853 106.643
-136.092 -154.004 57.6992
-122.607 -151.074 167.089
-143.887 -153.623 -0.125352
-145.213 -154.263 21.0079
-146.829 -134.711 12.4041
-148.263 -60.2813 44.3061
-147.52 -108.239 20.4473
-145.026 -94.4745 58.9214
-129.52 60.7178 -145.308
-127.439 49.4619 -127.355
-111.592 85.364 -185.932
-122.392 71.9413 -167.711
-112.393 30.2057 -151.515
-118.03 49.1433 -162.277
-103.04 37.9313 -175.327
2.78818 143.877 -207.441
-37.094 130.269 -213.191
-32.8901 75.6702 -222.135
-34.4673 97.9063 -223.596
5.98144 84.7012 -229.324
-69.7984 116.585 -212.82
-91.7539 104.011 -204.862
-59.8689 -40.6902 -124.587
-32.7887 1.13537 -182.521
3.08479 -2.1315 -178.099
-77.5826 20.5072 -183.603
-56.6948 9.07852 -183.152
-64.0125 -12.4404 -157.29
2.77678 32.4682 -211.285
-33.4088 19.6452 -201.793
-34.9774 41.2756 -214.178
-93.0504 72.6211 -204.482
-66.2378 57.1262 -213.848
-87.9838 45.0296 -197.168
[...]
POINT_DATA 642
SCALARS Mean_Curvature double 1
LOOKUP_TABLE default
0.0251482
0.0346445
0.0219139
0.0216637
-0.0127323
0.0184643
-0.00943605
0.000960916
0.0340347
0.0240421
0.0105115
0.0240423
-0.025166
0.0147353
0.000856084
0.00747959
-0.00875847
0.0250641
0.0178113
0.0163491
-0.0831856
-0.0741566
0.0177612
-0.000412728
0.0133424
0.0136351
0.0113429
0.010514
-0.000541399
0.00761846
0.012994
0.0128661
0.0111323
0.0136012
0.015967
0.0183864
-0.00353808
0.0222004
0.0195278
0.00849744
0.00928706
-0.00292712
0.0241606
-0.0238435
0.00603077
0.0154051
0.0185139
-0.00050908
0.0119835
0.0049101
0.0157565
0.00961398
0.0149937
0.0155358
-0.00507056
0.022335
0.00984272
-0.00478622
0.0452168
-0.017889
0.0359549
0.0393075
0.0119899
-0.00357481
0.0126204
0.016129
0.0199803
0.00876121
0.000593275
-0.00537345
0.0275806
0.016763
-0.0265954
-0.0211375
-0.103757
-0.0323815
-0.00113698
0.000825543
0.0250314
0.0149812
0.00665333
0.00636144
0.00449331
0.0109553
0.011475
0.016876
0.00247545
0.0155629
0.00756937
0.00424299
0.0153513
0.00634359
-0.000512506
-0.0106506
0.0101845
0.0460132
0.00822875
0.0102406
0.0222996
0.0214213
0.00943007
0.0127428
-0.0445781
0.0160327
0.0101752
0.00637769
0.00512385
0.0392206
0.0239092
0.0258135
0.0151137
-0.0737522
0.047169
0.0257523
0.0149293
0.00537264
0.0170802
0.00164672
0.025665
0.0176321
0.0103819
0.00607021
0.0101649
0.0243039
-0.0131043
0.016761
0.00514735
0.0204265
0.0190536
0.0265797
0.0255952
0.0196075
0.0134662
-0.00926935
0.0160342
0.0214764
0.0236539
0.0217679
0.00577579
0.00276561
0.0272528
0.016693
0.00199473
-0.0129245
-0.0077375
-0.000148405
0.0115108
0.00906087
0.00890692
0.0107494
0.0146453
0.0214321
0.0101898
-0.000373461
0.0141684
-0.0184054
0.0196449
0.0152807
0.0109778
0.075122
-0.0174202
0.00555379
0.0185394
0.02382
0.0222807
-0.0329787
-0.00168107
-0.0637447
-0.00687453
0.00594984
-0.00257961
0.015743
0.011136
0.00603772
0.0157655
0.01504
0.0157357
-0.133516
0.00670086
-0.101894
0.0128982
0.00887213
0.0084242
0.00627101
0.00851744
0.0104275
0.0144335
0.0124348
0.0135289
-0.0141353
0.00884988
0.0081652
-0.00407416
-0.00197829
0.00118032
-0.00192518
0.0216462
0.00418104
0.00896838
0.0095093
0.0117083
-0.00204736
0.00556563
0.0170355
0.0130803
0.00514761
0.0122418
-0.000816174
0.00362282
0.000240035
0.011982
0.0152977
-0.00272067
0.000263151
0.0048767
0.0127092
0.00917339
0.0103281
0.0164202
0.0352084
0.0265293
0.0159019
0.0327703
0.0255499
0.0450818
-0.0163491
0.015513
0.0434515
0.0406568
0.0438096
0.0150524
0.0127474
0.00901624
0.0125733
0.0103232
0.0242531
0.00567146
0.00940686
0.011255
0.00185117
0.0168485
-0.003958
0.0312432
0.0376685
0.0327628
0.00960837
0.0112248
0.0247242
0.0547396
0.0272688
0.0343141
0.000414955
0.015108
0.00519811
0.00717098
0.0144755
0.0127327
-0.00368642
-0.00124438
0.007876
0.0147945
0.00810564
-0.00487974
0.139454
0.0106217
0.0011687
0.00514377
0.0149124
0.0123167
0.0256534
0.0170026
0.0181073
-0.0178788
-0.021378
-0.0862104
0.00321934
-0.0181028
0.470477
0.0408472
0.0927487
-0.0239927
-0.232481
0.0022065
0.0117769
-0.0886764
-0.0345259
0.0037342
0.00236847
-0.0326482
0.188268
-0.0558442
-0.091383
0.0261491
0.0311395
0.00205894
-0.00154116
0.00510833
0.0168614
-0.00194779
0.00594173
0.00814743
0.0125703
0.0116863
0.0185396
0.0120114
0.00933917
0.016879
0.00923429
0.0103936
0.0055847
0.00839172
-0.00119449
0.0188393
0.00913502
0.0145018
0.00672278
0.00774001
0.00649254
0.0081517
0.0212534
0.0139153
0.0155775
0.0126856
0.00824191
0.0149331
0.0154078
0.0118141
0.00292352
0.0105333
0.0152462
0.0151292
0.0153686
-0.00560657
-0.00121913
0.00442152
0.0214236
0.00978151
0.0484893
0.0108269
0.012874
0.0108846
0.012165
0.0105813
0.0110878
0.00058245
0.0030695
0.0106768
0.0101185
0.00213947
-0.00291679
-0.00153599
0.0049014
-0.00216152
0.0171673
0.00742708
0.00357808
-0.0070512
0.0291051
0.00293674
0.0167985
0.0160673
0.0142301
-0.054055
-0.0845055
0.024602
0.0224308
0.0154939
0.00366477
0.00583088
0.000336735
0.0252621
0.00507811
0.0159679
0.017969
0.0094698
0.0159923
0.0142097
0.00160855
0.00926339
0.00770917
0.0167304
0.0281168
0.0206604
0.0231785
-0.0226218
0.00710313
0.000135565
0.0150433
0.0162086
0.01794
0.0121854
0.0174079
0.0144753
0.0235206
0.0203934
0.0209439
0.0102467
0.00110539
-0.000962793
0.0115612
0.013833
0.011886
0.00598112
0.0179853
0.039733
0.0266661
0.0157959
0.0358775
0.010489
0.00500311
0.0349244
0.0180345
0.0727078
0.000127424
0.00627171
0.0126897
0.0194788
0.0108809
0.0227544
0.0149198
0.0228511
0.00406686
0.00639769
-0.00607073
0.00526092
0.0183554
0.0142837
-0.0288772
0.0197497
0.0129222
0.0264201
0.0184881
0.010576
0.00656793
0.0194589
0.0188782
0.00401007
0.00129744
0.00344973
0.00673075
0.0286065
0.0229424
0.00342582
0.0204003
0.0257181
0.023962
0.00762903
0.0154855
0.0135531
0.0215198
0.0240966
0.0146405
0.0294855
0.0195131
0.01947
0.0146028
0.008127
-0.00414486
-0.0120286
0.0348842
-0.00888816
0.0175586
0.0210835
0.0241192
0.0164882
0.0158245
0.0159765
0.030958
0.00296103
-0.00789413
0.00423874
0.00984452
0.0178714
0.0210105
0.0233881
0.0371569
0.0407843
-0.0122788
0.0230753
0.021475
0.0139618
0.00357417
0.0252385
0.0268677
0.0146525
0.0219784
0.0254562
0.0223791
0.0293055
0.0230139
0.0118455
0.0129304
-0.00900549
-0.0140904
-0.00537369
0.0134392
0.0169387
0.00619001
0.0146728
0.0207575
0.0129868
-0.00127094
0.0214186
0.0158087
0.0291669
0.0261678
0.0200063
0.0226445
0.00686594
0.031227
0.0152671
-0.01955
-0.0678989
-0.0287742
-0.142288
-0.061494
0.0126276
0.0260224
0.00956125
-0.0377945
0.0240741
0.0180057
-0.0364202
0.0057721
0.00642709
0.0973644
-0.018685
0.0195648
0.00502893
0.0134541
0.0364291
0.0314739
-0.00410041
-0.0190529
-0.0110403
0.00379757
-0.000143407
0.00281744
0.0018902
0.00770991
0.00762243
0.0157942
0.000409289
0.0183813
0.00266635
-0.000146355
0.000102115
-0.00173592
0.0272802
0.0232401
0.00174371
-0.00047674
-0.00281035
0.00734836
0.00377841
0.017735
0.0283087
0.0090164
0.0159918
0.0125057
0.0103916
0.0117246
0.00478375
0.0151311
0.00746699
0.0162036
0.0160812
0.0113608
0.00963702
0.0180166
-0.00889124
0.0131808
0.0170444
0.0182548
0.0186367
0.0238786
0.0114476
0.0191638
0.0192984
0.024967
0.0131427
0.00271244
0.000270618
0.0164004
0.0170086
0.0207925
0.0243362
0.0157832
-0.0867757
0.0195921
0.0170576
-0.174437
-0.0314751
0.0268178
0.0151624
0.013987
0.0216545
0.0166282
-0.125445
-0.0243468
0.101636
0.0848065
0.0212816
0.0177262
0.0155308
0.00555853
0.0155278
0.0143158
0.0132647
0.0240733
0.0192214
0.0069635
0.0113869
0.0154012
0.017816
0.0149793
0.00801892
0.0204943
0.0135698
0.0227675
0.0168164
0.0184629
0.0143805
0.0209807
0.00722436
-0.00832808
0.00816316
0.00198114
-0.0133432
-0.0198817
0.0435921
0.0366567
-0.00617354
-0.034227
0.0334502
1.25877e-05
0.0112388
0.0290194
0.0321109
-0.136077
0.00538888
0.067933
SCALARS CoVolArea double 1
LOOKUP_TABLE default
513.047
589.586
808.256
864.786
1616.25
479.733
4853.73
1504.16
258.685
507.149
581.752
438.21
318.461
634.374
3350.41
2089.27
1250.03
1091.06
1165.25
1125.71
203.866
1064.12
632.728
2257.93
1252.65
524.791
563.609
1461.23
1112.67
2508.76
373.97
1286.74
1433.02
1431.32
1181.19
1030.25
3532.72
660.259
730.484
2512.08
729.37
1973.64
398.996
3538.49
830.764
535.641
1010.07
1279.55
524.158
749.04
674.107
987.869
678.728
559.911
2139.38
506.44
1098.6
1108.04
422.425
778.595
550.944
511.105
1294.16
1739.04
1414.9
1135.15
419.374
1364.76
1885.98
1155.9
852.934
886.751
140.356
4521.13
122.464
5022.51
1616.66
2712.57
249.37
720.951
680.855
859.137
832.464
707.914
981.539
794.873
997.185
1081.68
2050.03
1561.45
1181.02
2151.7
1352.4
1965.37
846.136
2606.49
1242.7
562.012
612.225
577.579
1274.08
896.276
836.986
750.562
915.981
1794.45
1488.87
493.566
1102.2
738.796
1223.93
775.096
2547.16
745.071
1278.01
1211.9
686.104
1105.68
1253.05
1218.31
1433.74
2152.58
1474.31
1238.04
1778.32
1223.4
1793.84
1161.38
1135.91
674.624
612.587
977.805
1433.38
1438.81
1133.25
668.455
479.738
1142.35
1081.36
1909.59
1228.17
785.197
1615.38
3715.2
935.452
2607.57
1084.76
1423.62
1173
962.787
747.496
1034.07
593.788
1123.66
720.054
1012.4
695.614
870.989
932.928
1754.96
930.855
339.089
433.268
364.11
536.767
2199.45
1310.95
530.853
3006.28
2086.76
4294.77
536.579
548.024
474.536
604.916
525.106
525.025
1326.12
782.882
1357.12
554.756
625.833
622.522
2122.94
593.537
1237.98
593.759
569.717
625.551
2449.48
920.672
2293.22
909.668
850.451
2281.4
1278.03
600.847
716.214
1107.22
616.98
494.742
1894.4
1175.37
987.182
1129.29
1941.6
717.351
744.331
604.7
1310.42
645.446
775.84
2479.13
1138.42
1846.65
1737.92
1951.96
1414.51
745.66
743.934
701.652
409.564
843.634
454.644
639.76
800.669
562.808
710.139
357.244
660.314
431.654
789.138
1405.79
1517.24
1461.39
1185.56
1541.96
1208.44
1257.03
1668.44
1339.18
755.076
1234.27
1136.53
607.526
516.057
1482.43
953.487
288.205
638.946
621.292
1704.68
1363.15
1741.55
1511.54
1120.27
1466.88
1750.58
1279.68
1146.12
653.565
377.344
667.404
274.042
995.4
1145.1
1501.43
1703.07
1645.41
987.079
497.381
112.161
328.39
375.844
191.689
2893.04
2283.62
297.671
1168.86
1554.64
512.617
71.8888
1563.55
763.975
1103.88
2707.58
2140.32
4537.75
4768.39
194.159
2299.08
704.095
476.619
388.297
3004.41
1930.2
933.503
1118.54
2277.74
725.001
695.26
599.055
560.89
574.14
561.787
1514.68
493.049
666.421
697.573
1790.39
861.921
1950.68
598.824
609.59
604.918
2051.46
854.991
2011.91
764.403
655.186
816.979
785.767
773.588
862.589
839.825
852.999
844.926
1424.76
1070.74
1021.68
706.12
745.552
3042.38
2112.42
1615.83
829.049
1392.48
551.847
1149
1611.85
1602.21
1149.88
1610.41
1279.48
1605.54
883.035
1344.74
1548.54
1325.57
2162.23
3145.6
1476.77
4192.25
567.641
1828.43
1039.05
2960.46
1232.3
2080.43
1205.39
699.561
2544.89
913.348
939.662
497.876
581.39
446.755
1421.87
872.714
2892.2
476.326
528.542
722.007
581.082
1131.02
511.94
656.76
1940.29
1529.94
1031.49
1001.03
794.578
1011.54
823.022
3421.4
1288.7
3244.35
752.86
756.592
888.51
1040.87
818.845
1061.01
828.296
959.613
755.085
1466.27
1779.55
1609.42
1434.67
1228.97
1471.52
1751.03
616.778
728.72
646.167
744.604
394.287
848.315
1365.75
385.313
997.821
371.726
1761.97
1286.8
1054.88
521.704
1116.59
630.746
1742.1
1116.86
1837.41
2096.59
2398.32
1400.12
667.645
1383.43
1274.78
884.797
866.892
1043
958.466
978.879
836.654
994.203
855.152
1137.69
1043.56
680.176
579.552
1230.16
927.338
1851.82
1292.48
1044.45
1184.27
1430.43
997.939
1182.03
850.382
1174.26
1291.51
1653.85
1117.48
954.719
1354.93
2524.28
2542.42
5154.78
1225.57
1683.97
1274.41
1697.67
1093.83
1742.32
1393.04
1121.34
1491.97
1305.52
4571.49
1865.65
2019.68
884.208
1136.29
861.441
1216.44
1172.81
3313.48
748.54
705.701
1553.03
949.405
654.83
708.116
886.37
634.969
684.565
746.453
611.878
610.459
779.915
1462.58
3566.02
1982.89
3374.47
1095.49
1313.41
752.45
623.584
1200.84
939.078
1598.34
1448.03
1553.33
627.442
715.012
723.761
670.38
534.305
528.041
622.209
3584.11
1644.21
3784.44
818.459
994.05
659.289
644.28
840.06
949.49
513.704
943.878
1271.54
1490.35
1452.43
1091.64
4258.87
779.988
2661.68
811.08
971.878
608.297
697.468
1273.81
2996.08
1475.98
2827.4
1435.89
2920.36
3625.18
1774
621.614
1417.25
551.988
3170.61
2120.4
1512.83
1858.7
1237.69
800.909
1347.83
3142.57
2541.4
1890.46
1943.98
1375.5
612.664
1007.07
883.817
869.005
1169.47
1534.72
844.587
768.771
873.561
802.896
856.076
1596.03
1189.03
1080.65
2247.38
966.622
934.35
1361.18
661.644
946.327
1027.2
954.68
1046.33
1104.06
861.25
591.209
730.22
775.09
914.161
992.474
875.165
648.808
1294.84
679.597
567.819
675.631
3833.67
579.998
658.824
585.857
622.642
727.417
827.001
3991.73
709.072
812.305
706.457
849.486
804.809
2694.38
528.85
749.101
620.847
589.518
821.837
1404.23
1064.25
884.193
858.824
826.734
1574
1011.32
1133.02
914.409
888.615
913.548
1049.17
978.388
720.458
1811.6
1659.37
2088.22
3024.15
1418.55
241.532
608.438
3239.4
3252.78
307.703
1441.2
266.866
247.957
262.319
664.207
194.382
1235.8
SCALARS SignedDistance double 1
LOOKUP_TABLE default
42.4721
44.2147
33.5289
30.0888
35.8286
41.4044
45.928
30.1661
46.569
40.9174
46.7825
45.0505
109.058
39.3743
50.2773
51.2867
42.8474
23.7072
28.8193
33.105
56.5325
53.164
37.7688
62.2069
31.7089
31.3982
41.4138
45.1035
32.9873
41.775
42.2097
29.7114
42.2723
30.6609
26.3653
27.3478
41.8894
33.2613
34.4311
42.3538
38.3096
45.4104
60.5273
72.5723
51.6381
41.4413
47.0199
49.0938
43.6487
45.5213
39.9185
45.7317
42.6115
43.7017
51.244
41.4111
45.1108
47.9892
35.8236
42.6161
36.8402
35.776
27.4896
32.3585
26.1122
29.2424
41.2378
29.9548
33.8128
46.3145
46.4707
42.6693
72.4274
66.8468
65.6074
96.7959
46.5768
52.0418
48.8072
39.4836
42.9757
45.0659
43.6109
40.7511
33.8672
34.9632
39.5577
34.348
31.8777
33.7306
29.141
43.8225
43.6428
49.5269
44.9649
64.8417
43.5861
37.3293
35.519
47.6862
28.4508
31.4735
69.8136
35.6404
38.1236
28.9606
30.3019
39.9496
29.2101
38.3573
45.0235
54.7369
61.3441
38.4018
45.172
35.9255
39.7312
40.7914
21.9908
25.0078
29.4785
37.6547
30.792
20.5495
37.5614
29.9302
38.3918
49.3064
29.8903
25.8861
28.1899
29.7419
45.4169
48.3432
45.8097
34.2626
39.4296
73.618
45.6819
48.2983
41.005
44.8909
40.5402
56.0872
45.8919
43.4667
43.1917
30.9144
33.8461
34.1629
38.1818
26.8931
42.3291
45.9465
35.1989
47.6686
32.8249
35.0672
30.4929
70.2017
50.5368
45.4582
47.4168
53.3875
47.8097
109.369
63.5877
77.854
52.6638
60.0869
53.7605
44.1528
45.8493
46.4101
43.1143
44.5296
39.5648
84.1885
49.2326
71.2722
42.017
43.1445
40.2492
47.2182
44.2538
46.2512
39.4274
43.1179
43.1587
51.3762
46.2772
50.3937
47.1567
44.7925
48.4412
48.4766
41.5914
45.4233
44.7582
42.6318
44.2744
51.2346
49.396
48.4637
49.0489
51.1752
45.2245
46.0976
45.9428
43.5337
45.047
41.4026
48.9239
46.0698
48.0018
48.7398
49.4542
43.1632
40.9043
38.5668
36.6399
36.091
37.0638
34.7855
31.9143
41.9262
36.445
30.439
33.5321
31.069
36.1311
41.9539
29.0935
26.0148
28.9403
24.8639
29.833
30.4544
30.1764
30.0939
25.719
44.1238
38.2796
30.8181
35.6736
38.9245
33.4111
31.5924
54.9566
34.8876
43.2705
30.9789
29.4128
33.6827
29.2071
29.7798
28.3043
31.91
48.1707
51.5922
44.6972
47.2885
43.4752
59.5073
36.0745
52.0647
46.2584
27.9776
42.3976
39.6377
48.4797
65.0424
59.9318
67.8233
84.0998
50.751
56.3309
90.2595
82.9741
74.7233
64.8018
63.8019
47.4622
45.4129
106.267
56.0875
48.5475
47.0529
82.5523
68.5333
62.8608
74.332
49.5138
44.3936
48.7004
52.9617
50.6552
52.6319
58.4318
39.74
41.5757
41.8597
42.2902
38.0979
42.2506
44.1102
42.8038
41.7318
39.7687
47.6917
43.6977
47.0042
38.5779
42.5606
41.4226
46.2633
43.953
47.6401
37.7112
37.9686
36.4072
35.7917
33.3348
35.2095
32.3516
42.7789
40.3699
35.0682
37.5521
37.5054
38.7286
36.8663
32.5397
32.3699
30.1585
31.8137
31.5759
31.1849
28.946
32.2314
32.4066
33.8524
32.5372
33.471
45.3574
44.5946
46.037
46.6324
42.8209
44.7023
44.2237
56.9627
56.9878
43.2871
45.3371
42.1345
48.5694
48.6793
40.6668
39.1274
37.5542
60.6651
45.2116
51.1109
40
41.3779
43.0999
44.5881
43.8205
42.4387
44.766
47.2872
33.6724
37.0402
43.2168
39.7169
37.1756
29.5461
28.6119
32.7959
30.9389
31.3889
28.4337
29.1516
71.4512
43.5543
43.2433
38.309
42.0931
54.2687
33.6612
36.0764
31.4063
29.9851
30.8143
33.6358
29.1039
31.4291
31.3241
26.959
28.4235
27.9833
30.7802
37.906
33.176
39.5355
31.8053
42.8261
39.0059
34.41
42.7008
43.8661
45.2698
37.6688
44.3698
31.8979
45.3744
49.1049
40.93
26.7485
34.5454
38.0478
37.4058
59.1831
58.9203
39.3485
40.7208
47.5717
31.9596
37.4562
32.0513
39.0769
39.8166
41.7653
32.1758
38.1238
34.4098
40.155
39.9353
39.6964
32.4362
29.618
30.0956
21.7926
21.0002
23.0925
29.0043
27.4398
27.396
38.2069
31.4466
29.4249
62.6108
29.4425
33.8164
39.961
31.7465
63.8455
46.2245
27.8742
32.5992
24.2556
25.3567
21.8234
31.3075
26.1796
30.9418
64.2677
61.8155
59.9043
66.7056
31.5097
30.5333
43.0158
33.5833
42.6138
36.5039
41.1954
30.2559
27.1615
37.9273
31.3265
28.4268
28.4757
30.2249
30.6243
28.1322
29.7558
27.8907
29.0343
31.6095
31.4851
53.2721
55.5841
53.1892
36.1013
47.4111
37.7616
37.8961
42.1972
35.288
40.9491
31.7372
40.3703
29.6904
33.9923
31.2799
28.5804
39.6108
35.6911
37.4743
66.5322
67.8965
67.6121
77.0461
53.4162
47.4267
37.8984
55.1685
64.2586
46.353
38.7656
50.9838
40.8491
40.6026
73.7335
56.9087
37.1103
39.7822
38.0388
38.5027
36.454
39.5836
40.5348
53.8111
47.1686
63.469
45.4019
43.9632
46.5217
43.9312
46.7971
42.1487
42.1973
40.6564
41.4203
44.9785
43.5834
46.6798
49.2419
46.1741
43.8455
31.383
29.5156
31.9932
29.2401
31.5306
37.5426
34.2511
36.1589
34.6279
31.3415
37.3366
31.9874
35.2877
35.4145
34.2852
31.9619
33.3288
31.1541
60.1629
32.1877
39.9266
44.0665
42.7345
28.3437
30.6614
27.6433
23.2139
25.1947
43.822
42.3741
42.6281
42.2743
38.4154
34.7888
39.0627
42.0058
67.7502
37.439
48.0608
76.786
73.0922
35.087
39.8122
36.5872
32.2898
32.5561
68.3628
60.072
74.9547
57.4827
42.2353
36.2541
40.1316
41.152
38.9462
35.6817
36.4808
34.3664
30.3541
42.5322
31.841
36.2499
41.1598
37.8705
28.8823
28.0334
29.2632
29.1212
32.8022
32.6076
31.4511
28.8843
43.5328
51.9455
44.2027
45.0186
59.4195
51.18
47.2658
47.7056
53.409
69.3258
45.0705
49.114
47.019
45.1557
45.2353
73.2008
52.3342
66.1821
