# vtk DataFile Version 4.2
vtk output
ASCII
DATASET POLYDATA
POINTS 642 double
-118.055 226.998 -24.7346
116.41 235.301 -30.3969
-103.858 -202.643 36.6459
125.56 -209.546 37.0023
1.04231 -178.314 285.671
4.197 74.8545 256.584
2.56097 -53.4631 -80.617
3.27332 187.594 -169.484
136.903 72.0279 -121.914
138.796 -4.61216 202.498
-110.433 69.3081 -115.906
-111.888 0.250532 203.5
-132.632 152.321 38.7412
-75.1629 44.2824 251.61
-21.6 120.074 101.988
36.5107 118.997 107.561
0.401524 271.581 -48.4607
80.0148 286.419 -90.859
-64.2397 278.349 -87.8489
-96.4051 112.008 -173.231
-167.812 192.11 -37.8593
-128.99 20.0025 17.079
87.8324 48.5776 258.322
101.541 109.162 37.9314
-100.989 -100.55 273.291
8.96839 -11.5676 328.278
-123.745 -130.506 -1.5669
-107.747 -135.732 193.581
5.87347 69.4392 -205.719
-76.31 22.8159 -153.032
153.407 191.582 -51.9952
111.657 113.852 -176.463
134.882 -136.442 199.703
120.114 -101.449 275.576
90.7174 -221.539 238.148
-78.3965 -218.903 237.246
-0.145285 -213.39 32.1478
-75.5009 -194.194 -37.9886
91.9174 -195.257 -38.2856
88.8299 21.8693 -154.941
142.601 -140.54 -2.71218
140.765 -0.563534 59.5988
-138.107 188.019 -16.443
-107.23 107.591 45.9106
-101.193 213.712 -18.1408
-99.7199 21.8727 230.631
-88.0719 47.8636 200.634
-96.8288 39.3987 174.46
-11.914 90.9718 218.939
-50.6754 70.5363 223.09
-36.9874 63.2203 261.261
-20.837 235.311 -5.53997
-44.1803 269.845 -42.6587
26.7047 93.3616 218.001
6.34624 115.74 113.119
62.3843 274.616 -43.1694
35.8906 234.647 -4.72218
92.8218 217.721 -17.9467
-40.7776 294.619 -65.8782
-82.5519 252.347 -59.0304
91.2692 279.221 -66.994
56.1452 295.282 -66.2431
-35.7296 237.398 -139.336
1.94895 280.603 -89.3725
45.4429 240.033 -142.109
-139.139 222.031 -64.7941
-152.168 207.909 -36.6159
-61.0669 146.633 -180.901
-89.04 198.5 -124.576
-145.559 190.304 -56.7347
-137.903 175.743 -83.1964
-111.675 85.0884 -140.607
-163.571 189.235 -17.4432
-109.289 94.4746 -1.79788
-159.395 190.703 -35.211
-141.377 158.862 36.3409
-113.286 -5.85809 136.677
74.5656 121.903 70.0539
131.27 209.665 -22.511
51.6594 64.0029 263.764
62.0609 76.5247 225.977
126.059 24.1724 180.852
100.981 50.6495 211.276
116.078 21.8481 235.091
-38.7081 27.5208 294.328
5.42961 42.8084 296.243
-107.946 -53.0166 240.719
-89.2169 1.25791 269.911
5.54778 -42.3592 322.309
-42.0403 -33.9134 305.668
-70.1608 -142.626 293.409
-125.709 -50.1184 95.0607
-111.265 -72.3701 209.068
-101.379 -55.0756 -45.7486
-124.986 -74.4643 20.1214
-123.615 -154.386 115.534
-124.204 -134.164 27.3011
-119.361 -170.517 10.2453
-95.9961 64.5496 -173.712
-100.91 45.3324 -131.128
4.78089 101.932 -211.918
-62.2481 89.4606 -201.371
-59.1548 -24.0225 -141.349
-55.4184 40.0216 -188.306
2.59988 26.4395 -184.038
100.156 206.641 -133.677
69.804 150.234 -181.2
148.146 217.742 -37.9762
143.814 230.769 -72.9173
138.274 82.3054 -142.936
143.541 170.527 -95.3258
144.024 141.696 -75.2638
154.656 -153.161 115.698
128.555 -182.093 218.479
98.1093 -204.467 182.447
132.217 -53.0508 243.366
137.865 -128.168 240.589
138.204 -77.253 208.441
62.3951 -207.979 288.548
113.054 -177.762 275.897
79.8155 -147.83 293.472
60.7843 -220.605 200.506
90.9162 -222.193 37.9246
-54.0373 -206.502 286.59
1.50424 -215.504 234.915
-75.4041 -221.78 38.9618
-55.0498 -219.13 197.611
-80.6197 -204.501 177.383
65.7622 -222.046 -9.19002
116.52 -216.81 -9.33972
-98.01 -211.37 -6.93924
-58.3332 -221.835 -9.36749
65.993 -157.363 -53.0813
0.168508 -185.833 -33.7799
-58.1036 -156.061 -53.316
129.125 -179.608 -26.04
137.899 -185.439 8.0397
68.3609 -14.8285 -151.808
89.3081 -146.698 -54.8184
124.273 -40.8695 -43.7454
130.459 -100.547 -36.4034
125.706 48.7773 -132.408
143.904 -139.689 27.2214
115.635 63.1976 -42.7309
140.947 -88.5752 22.923
141.922 -52.4978 100.057
139.104 1.08209 151.833
49.7256 -26.3014 317.495
102.041 -0.676463 275.756
49.7108 25.4537 299.726
-107.299 -175.799 217.317
-100.386 -173.548 271.154
-110.688 -130.979 238.789
-74.7532 -140.113 -56.8539
-108.66 -170.739 -23.3496
-115.487 -96.789 -40.2815
114.321 65.1428 -176.237
63.5171 38.1987 -189.351
65.5338 89.0055 -205.32
141.25 74.153 53.4705
154.03 171.389 -33.8783
148.424 190.12 -37.1181
-128.245 210.649 -19.6766
-121.581 205.654 -17.9914
-111.662 221 -20.8404
-127.159 137.761 57.7134
-132.277 180.006 -9.67016
-151.388 170.573 7.06532
-66.4803 192.095 1.05441
-108.655 192.183 -12.5663
-56.5617 116.774 74.8643
-107.335 10.2816 216.412
-101.624 24.4791 208.563
-107.295 11.7678 196.924
-84.1771 45.8051 229.748
-93.7446 36.7046 220.124
-90.1516 33.2451 242.495
-112.73 100.085 110.518
-91.3036 50.4416 184.623
-105.89 83.7168 134.686
-3.96907 84.0694 237.839
-24.037 76.5535 241.208
-12.3706 70.0333 260.061
-36.8752 85.2043 200.142
-31.2317 82.172 222.073
-18.3532 94.3524 200.321
-56.2335 54.7973 258.387
-45.4645 67.2299 242.873
-63.1897 58.0994 239.596
-80.1527 66.673 150.944
-72.6164 59.0583 213.635
-60.2538 72.5902 182.35
-70.594 234.798 -28.7253
-83.133 244.942 -40.9401
-19.9269 202.646 19.4994
-47.5791 224.553 -13.3134
-34.7506 275.407 -43.1001
-34.2625 256.26 -30.5858
-21.9049 255.033 -25.044
14.8631 84.7445 236.836
6.10224 92.9684 219.793
31.4045 114.491 115.93
17.241 95.888 202.26
34.8344 96.0451 199.277
-2.49386 96.073 202.419
-10.5606 116.578 111.186
79.1384 258.402 -41.8229
72.4305 248.933 -32.2687
110.213 231.082 -27.8562
31.7644 254.691 -25.2123
53.0402 258.353 -31.5981
49.4219 276.952 -43.7739
60.3022 192.23 15.9729
53.7488 232.857 -11.7766
31.6947 201.423 23.316
-3.29781 199.683 29.704
13.7445 197.729 31.3652
2.12375 232.795 3.79371
-59.8999 270.456 -54.5097
-109.144 241.262 -38.8368
-28.377 289.232 -57.8559
-41.6766 288.651 -59.1762
-71.0839 274.41 -72.3633
-52.132 290.661 -68.0451
-51.4361 294.905 -71.5462
102.995 255.748 -58.2419
75.772 283.86 -56.9678
69.557 298.081 -72.0984
73.0941 293.865 -67.2338
87.0917 288.458 -71.8919
60.8581 289.468 -58.6261
36.6835 287.69 -60.6421
-17.4539 216.125 -156.851
3.08783 240.525 -145.661
24.4578 217.418 -158.013
-42.2846 287.733 -94.3059
-22.5215 260.61 -115.473
-49.1953 260.201 -109.097
63.331 262.982 -109.415
29.9449 260.547 -116.451
54.1668 288.762 -94.3052
2.10665 285.696 -65.1922
35.3406 295.52 -72.9487
-27.4601 298.493 -73.491
-131.593 231.378 -40.7444
-135.422 220.584 -31.9225
-102.511 248.946 -74.9724
-118.873 241.686 -56.9853
-166.126 192.142 -34.6213
-149.251 216.694 -43.7926
-158.854 200.463 -48.0738
-33.2217 168.375 -174.208
-46.6712 200.246 -159.554
-91.8106 154.695 -150.582
-70.4437 176.515 -158.977
-82.4917 127.445 -182.405
-60.0354 223.232 -138.889
-74.6518 236.879 -104.104
-114.088 107.937 -92.5971
-116.152 124.228 -97.9073
-112.089 77.1034 -128.271
-158.278 186.725 -58.9601
-150.756 181.157 -78.5801
-166.5 191.655 -40.5461
-106.89 97.8636 -158.392
-112.728 134.295 -109.121
-106.127 138.091 -127.559
-123.394 217.737 -93.6859
-122.069 184.189 -103.975
-143.838 197.333 -74.5268
-145.36 200.497 -24.876
-168.266 192.425 -37.7414
-166.052 190.402 -27.9529
-159.404 180.193 -9.21128
-155.459 174.516 2.86882
-108.544 75.1049 -92.7917
-129.652 155.621 -36.1882
-152.38 134.071 -21.2441
-154.18 141.372 -24.416
-137.617 58.8897 5.95534
-167.055 195.467 -33.7085
-172.046 191.732 -30.6605
-105.935 16.5748 169.741
-111.857 0.739975 187.917
-144.035 152.368 29.3154
-96.2568 85.6295 106.652
-119.234 -6.64806 78.877
-109.428 34.9684 98.9414
-127.046 70.0965 2.087
-173.302 187.757 -26.8732
-169.05 174.539 -32.2076
-165.228 187.914 -15.3303
122.268 212.514 -19.8356
130.587 218.743 -22.8745
54.7743 121.711 93.4612
101.143 189.34 -3.70751
127.969 191.88 -18.628
118.22 196.319 -15.3783
87.4937 120.166 48.0629
23.958 70.5023 260.557
38.3886 79.3382 241.275
75.5335 61.6537 245.643
59.1275 69.7243 245.541
70.1215 57.9651 263.783
45.2796 87.5218 221.621
48.9987 92.7041 202.12
135.401 8.32771 192.582
124.904 22.4334 208.587
131.613 5.73232 217.278
100.808 60.5372 165.829
114.896 39.4876 195.626
110.159 52.3146 148.207
103.428 37.7031 249.517
108.341 37.6982 226.596
96.5709 49.2514 238.229
69.6115 81.6457 194.099
82.853 64.2635 221.04
87.1542 71.1607 179.817
-13.8179 55.6471 278.717
4.27558 62.6584 276.832
-60.4353 39.8692 272.357
-40.5687 48.7914 278.427
7.16854 15.5042 314.701
-14.1315 32.9449 298.154
-11.6174 8.73796 315.977
-111.517 -21.0309 222.167
-106.026 -0.648697 234.94
-92.5964 -47.65 268.971
-100.075 -23.0978 253.569
-106.257 -79.0513 256.901
-95.6802 14.6732 250.535
-84.3776 25.0793 260.978
-1.57588 -114.7 290.751
-41.0532 -99.6159 294.98
-49.2618 -159.308 293.522
-6.33719 -13.7075 325.435
-14.896 -35.9753 318.887
9.13364 -18.6209 332.993
-87.0702 -122.934 286.213
-63.4608 -87.0528 295.519
-78.1809 -72.5755 289.165
-66.6428 15.4638 283.777
-70.8577 -17.8768 289.994
-36.4926 0.635945 306.811
-112.127 -21.886 173.373
-111.712 -29.6135 205.465
-126.285 -25.9224 72.2288
-123.227 -27.5555 109.961
-110.912 -113.355 202.017
-111.955 -61.991 158.579
-111.755 -93.4144 146.34
-97.8168 33.3908 -101.41
-99.8189 -0.1273 -44.5735
-125.491 -107.063 8.08689
-122.373 -78.4071 4.47107
-120.157 -106.852 -10.2452
-119.128 -25.8053 27.0122
-124.81 -24.7468 40.989
-103.493 -185.522 62.6054
-117.533 -169.905 32.5666
-111.726 -188.976 19.4433
-105.818 -150.004 103.709
-113.858 -154.23 56.5552
-100.608 -150.384 163.695
-124.398 -150.248 3.84229
-124.901 -150.477 19.2638
-125.2 -133.902 13.1847
-125.838 -59.9475 44.5316
-125.501 -107.692 20.049
-123.971 -92.4141 56.8649
-108.611 66.7488 -140.963
-104.998 56.3622 -125.53
-97.614 85.4438 -175.892
-106.344 74.3911 -160.161
-96.0669 40.5213 -143.535
-101.516 56.8427 -155.056
-90.7216 47.3492 -166.408
3.04179 137.362 -194.371
-35.3894 124.364 -200.179
-30.7151 78.3171 -206.056
-32.0748 96.611 -208.645
6.82243 86.5534 -214.046
-65.2661 112.604 -200.092
-83.5703 101.921 -193.542
-68.6883 -33.2233 -117.723
-31.5078 17.401 -168.265
3.07174 14.7123 -165.097
-68.7072 32.4492 -171.868
-51.2573 22.3119 -168.773
-53.3687 -9.5569 -151.521
2.89694 40.2753 -196.909
-31.1745 30.8478 -189.094
-33.2252 47.2922 -200.166
-84.6048 74.6519 -192.962
-61.764 61.3151 -200.092
[...]
POINT_DATA 642
SCALARS Mean_Curvature double 1
LOOKUP_TABLE default
0.0572238
0.0487898
0.0291906
0.0339084
-0.0232029
0.017489
-0.00999985
0.00218451
0.0254397
0.030906
0.0176392
0.0301298
-0.252034
0.0205518
0.00487525
0.00370589
-0.0159959
0.041584
0.033262
0.0154282
-0.132799
-0.0956063
0.0222916
-0.00957001
0.0223408
0.00791497
0.0182581
0.00580094
-0.00561659
0.00207882
0.0224551
0.0142349
0.0064374
0.019831
0.0185946
0.0226061
-0.00497088
0.0251886
0.0153827
0.00417702
0.0072403
0.00161754
-0.0201309
-0.0359138
0.00145854
0.016149
0.0399816
-0.00359188
0.0203901
0.00323562
0.0195916
0.0130005
0.0157062
0.0247522
-0.00556883
0.0304559
0.0133357
-0.00603752
0.0209522
-0.0700496
0.0568081
0.0438564
0.0150898
-0.00658519
0.0190007
0.0255982
0.0168178
0.00897512
-0.00179425
-0.041611
-0.053658
0.0156208
0.220113
-0.028624
0.0505093
-0.0392622
-0.0022771
0.00873932
0.0275643
0.0152778
0.00683607
0.00196143
0.005382
0.00590814
0.0157289
0.0241358
0.00571388
0.0237356
0.00750663
0.00185707
0.0177002
0.00731485
-0.00061274
-0.0275158
0.0125444
0.0558277
0.00576484
0.0173119
0.0246385
-0.0071762
0.0139372
0.00842014
-0.132243
0.0172913
0.0125036
0.00794693
0.00383369
0.0561015
0.0346778
0.0329217
0.0243772
-0.119493
0.0580975
0.0255048
0.0320152
0.00955227
0.00677976
0.000561013
0.0425428
0.0218543
0.0108707
0.0063725
0.0118271
0.0372306
-0.0205775
0.0276336
0.00589204
0.0350813
0.0297487
0.0426359
0.0409326
0.0221093
0.0173678
-0.0234865
0.0233112
0.0292135
0.0065439
-0.028688
0.029653
-0.00137646
-0.0921868
0.0174404
-0.00202447
-0.0147302
-0.00714151
-0.000504564
0.0158606
0.00935571
0.0110545
0.0105369
0.0199446
0.0318731
0.00207638
0.0288911
0.018127
0.0596178
0.0242402
0.0182508
0.0105207
0.10533
0.0963671
-0.00711396
0.0516401
-0.00106766
0.0238528
0.00573316
-0.0192408
-0.10392
-0.00629164
-0.00455637
-0.00422825
0.0164829
0.00760402
0.000969993
0.0190932
0.0224915
0.0250809
-0.0738691
-0.044156
-0.230973
0.015705
0.0065121
0.00992303
0.00810862
0.0130694
0.0204423
0.0199049
0.0107507
0.00998922
-0.0404078
0.0107191
0.00440212
-0.0036194
-0.0178998
0.00165029
-0.00395815
0.0300045
-0.00293025
0.0102362
0.00737677
0.0199854
-0.00283367
-9.64599e-05
0.0142363
0.00850564
0.00255818
0.00579349
-0.00242226
-0.00395082
0.00204025
0.00519033
0.0189176
-0.0026816
-0.000262666
0.00902108
0.0165862
0.00709046
0.0177402
0.0312223
0.0769466
0.0618778
0.0242844
0.0558401
0.0153195
0.087044
-0.0542164
0.0253293
0.073818
0.0337165
0.104678
0.0197357
0.0248167
0.00817047
0.0184426
0.00904133
0.0348511
0.00194608
0.008247
0.00519195
-0.00119411
0.0269164
-0.0872526
0.0593882
0.0742607
0.0297545
0.0132663
0.0173355
0.0535264
0.0109236
0.0601672
0.0261712
-0.0021768
0.0171799
0.0106089
0.0112835
0.0228933
0.0183399
-0.00870552
0.00185564
0.00176915
0.0150407
-0.106025
0.0858133
-0.140004
0.0190898
-0.00283204
0.00161785
0.023109
0.0117277
0.0147097
0.0115884
0.256329
-0.0477906
-0.111133
0.416166
0.000677145
-0.0260958
0.108507
0.0568065
-0.0997593
-0.0698907
-0.305428
0.00181306
0.0181658
-0.172772
-0.0440242
-0.0053008
0.00207513
-0.0196028
0.165756
0.0318737
0.132116
0.0209313
0.0633352
0.00897362
-0.0055932
0.0104312
0.0147905
-0.00907537
0.00722168
0.0100205
0.00948677
0.00723185
0.0281841
0.0208449
0.0212157
0.0201984
0.0135463
0.0151492
0.0052974
0.0109165
-0.0014467
0.0268777
0.00518587
0.0172239
0.0067886
0.00612093
0.00572659
0.00694418
0.028689
0.0161982
0.022811
0.0140472
0.00472703
0.0227093
0.0176772
0.0170032
0.00436652
0.00956316
0.018019
0.0163711
0.0194406
-0.00558612
-0.00211733
0.00220424
0.024199
0.0128197
0.0709038
0.0171813
0.0158351
0.0150969
0.0145732
0.0134554
0.0118638
0.000611129
0.000251462
0.0179004
0.0126019
0.00363064
-0.00322524
-0.000510754
-0.0233774
-0.0042491
0.0212212
0.00593692
0.00193778
-0.0127422
0.0266587
0.00420344
0.0343667
0.00465979
-0.0165284
-0.0383137
-0.0649916
0.0319264
0.0239379
0.0118493
0.00386874
0.00443936
0.00230014
0.0233653
0.01731
0.0138511
0.0319117
0.0131204
0.0200479
0.0208939
0.00193014
0.0109173
0.00345754
0.0217073
0.0373976
0.0270544
0.034647
-0.0335432
-0.0104367
-0.00165106
0.0211725
-0.0112229
-0.129741
0.018708
0.0261464
0.0218445
0.0376562
0.0284585
0.0286732
0.00984672
-0.00213908
-0.00332603
0.0155768
0.020956
0.0159491
0.00934528
0.0369938
0.127577
0.0199301
0.0312067
0.0533473
-0.0192663
-0.00207308
0.057915
0.0379728
0.0464444
-0.00119123
0.00349853
0.0183371
0.029143
-0.00306131
0.0276104
0.0241996
0.031305
0.00131648
0.00361004
-0.0224007
-0.00725523
0.0225644
0.019758
-0.0473954
0.0305214
0.0105313
0.0351835
0.0250157
0.0111145
0.00170192
0.0306111
0.0210459
6.33966e-07
0.00245867
0.000709134
0.00668893
0.0372837
0.0175377
0.00326318
0.030065
0.0380443
0.0292677
0.0083789
0.0176499
0.0204956
0.0198416
0.0325124
0.020059
0.0809597
0.0319794
0.0209087
0.0284627
0.00985384
-0.0216675
-0.0100596
0.0521591
-0.0145465
0.0282778
0.0262683
0.0326796
0.0178055
0.0257296
0.0267521
0.11012
-0.0365337
-0.0125218
-0.0160983
0.0123862
0.0380409
0.0478506
0.0270558
0.0479405
0.0594893
-0.0161729
0.0220041
0.0360594
0.0167755
0.00029771
0.0413926
0.0327702
0.0227654
0.0377296
0.0389608
0.0330579
0.0406518
0.0374151
0.00551996
0.0191667
-0.0147905
-0.0217056
-0.014433
0.017453
0.0257561
0.0127846
0.0233255
0.0350283
0.00964315
-0.00656348
0.0379017
0.0217815
0.0494178
0.0351088
0.0281977
0.0359916
-0.00059747
0.0364709
0.0226018
-0.0287153
-0.0394424
0.00628367
0.247594
-0.101115
-0.0302304
0.0342748
-0.0178716
-0.114772
0.0372403
0.0123167
-0.133392
0.00478615
0.012857
0.136872
-0.0284538
0.0244418
0.00224139
0.0187637
0.0194521
0.0642571
-0.00994876
-0.068277
-0.0154414
0.00942994
-0.00638212
0.00243834
0.00330989
0.00486403
0.00843347
0.013407
-0.000154159
0.0238742
0.00307157
-0.000246636
-0.00115318
-0.0021861
0.032758
0.00915022
-0.00198519
1.32536e-05
-0.00293767
0.0126929
0.00155702
0.0255541
0.0336037
0.0110146
0.024495
0.0139707
0.00909835
0.0178786
0.00363062
0.0187782
0.00440506
0.0208835
0.0244752
0.0115424
0.00883875
0.0259369
-0.0209993
0.0133372
0.0125198
0.0224433
0.0200253
0.0253783
0.01777
0.0248493
0.0258875
0.0327343
0.0105042
0.00294012
-0.000786272
0.0132361
0.0218022
0.0246069
0.0248132
0.00853261
0.12224
0.0299162
-0.0516942
0.322414
0.0434957
0.0216911
0.0131539
0.0175543
0.0336379
0.0215188
0.152143
-0.0425124
0.141042
0.0307628
-0.032865
0.0260183
0.0225802
-0.0017143
0.0265227
0.018268
0.0172908
0.0313816
0.0253136
-0.00842627
0.0152903
0.0229192
-0.00428347
0.0239734
0.00870617
0.0278694
0.0145684
0.0326331
0.0141656
0.024178
0.0164576
0.0292734
0.00929954
-0.0459056
0.0127492
-0.000397063
-0.031989
0.0100061
0.0106646
0.0228356
-0.0142592
-0.0432596
0.0346651
0.00231556
0.0105436
0.010083
0.0718532
0.292518
-0.107651
0.0546396
SCALARS CoVolArea double 1
LOOKUP_TABLE default
305.814
437.176
640.25
653.318
1604.12
362.817
6192.02
1423.79
170.891
349.62
537.872
316.792
302.955
455.202
3164.33
1715.51
1159.95
826.814
891.031
896.897
58.6599
1328.75
438.932
2602.97
993.892
352.494
425.532
1510.6
945.805
2590.29
211.369
1070.12
1448.91
1175.77
875.191
751.407
3775.23
450.514
521.457
2756.14
559.995
1926.93
343.615
4071.97
833.94
377.482
736.702
1169.16
390.555
650.548
513.743
833.535
572.757
415.738
2085.25
368.467
913.718
1177.54
215.264
639.047
315.624
261.044
1095.53
1465.49
1223.29
803.864
244.844
1152.69
1730.41
1306.26
723.75
685.151
71.4558
5130.04
258.452
4328.22
1555.66
2259.68
149.423
564.463
555.848
771.162
720.561
553.845
778.115
628.599
800.454
855.689
1872.27
1335.53
973.283
1977.82
1335.81
2160.93
685.78
2364.95
1208.49
400.072
407.303
394.406
1046.73
673.988
790.448
557.962
763.81
1615.6
1313.91
245.525
831.236
491.205
979.971
457.649
2642.16
517.246
934.372
1000.79
493.058
1052.72
961.935
927.392
1277.05
2194.23
1199.53
952.399
1507.88
831.355
1751.24
825.963
872.866
440.443
394.048
737.856
1369.93
1195.66
998.16
448.685
336.668
1065.06
759.364
1605.44
1163.88
565.954
1674.03
4174.94
831.94
2506.92
931.384
1176.77
961.363
758.941
550.819
739.483
458.422
842.591
525.559
1049.75
483.944
670.042
707.052
1213.96
886.26
252.688
261.524
297.572
389.298
1877.76
1356.27
469.365
3199.74
2460.6
4775.08
380.566
478.063
406.102
446.81
379.248
361.391
1055.68
571.1
741.484
417.326
489.867
476.761
1964.11
473.602
984.671
428.525
437.708
475.063
2141.36
841.937
2566.03
884.555
673.03
2202.4
1335.51
459.81
642.355
964.664
476.262
361.561
1710.62
1096.17
742.813
971.622
1610.78
625.805
709.291
485.976
1181.13
531.106
659.311
2516.83
1128.74
1630.16
1435.23
1725.9
1169.65
585.959
532.283
538.423
262.454
564.094
288.478
331.97
684.023
442.133
378.804
172.765
373.063
282.03
635.014
1235.67
1334.37
1292.54
890.654
1388.62
1034.06
1076.43
1529.93
1046.41
491.419
835.248
768.42
404.867
333.212
1174.83
678.359
113.385
379.871
384.921
1581.49
1151.72
1520.89
1314.02
892.048
1313.45
1614.1
1387.95
1024.78
509.268
255.13
640.866
136.788
804.523
940.004
1296.68
1440.53
1419
734.288
381.295
38.7999
183.028
268.317
117.133
3432.4
2769.37
493.558
1241.26
1432.6
608.898
37.6564
1673.82
655.445
891.448
2667.04
2270.26
4776.79
4480.57
133.675
1703.9
409.312
379.98
187.276
2684.96
1804.74
907.394
884.315
2181.88
584.521
550.51
457.604
424.516
403.253
420.04
1257.59
353.812
534.679
522.961
1740.61
759.068
2056.93
429.409
483.97
461.268
1782.58
730.966
1789.91
594.668
496.046
614.807
604.541
618.774
690.66
644.887
655.284
648.845
1182.66
861.943
793.064
519.577
543.103
3192.55
1980.82
1549.97
613.46
1137.05
333.349
912.52
1363.46
1353.24
911.023
1375.26
1052.87
1537.58
773.748
1181.05
1404.36
1314.73
2111.46
3207.56
1690.49
4868.49
431.134
1858.43
938.105
3100.89
1009.58
1681.8
969.835
542.09
2672.6
963.396
1052.23
327.606
445.608
308.86
1241.25
732.638
2861.13
323.29
467.832
505.598
387.436
887.677
353.118
493.121
1839.27
1343.63
841.121
777.01
591.477
787.855
585.157
3779.7
1120
3726.5
618.928
593.587
838.502
835.915
638.66
849.765
573.956
713.959
526.71
1275.39
1671.31
1446.92
1252.05
1010.85
1259.51
1560.98
365.512
428.105
383.748
461.92
193.826
550.529
1139.97
200.529
622.817
206.159
1584.19
1027.31
841.293
342.823
777.903
416.465
1488.98
791.597
1596.1
1842.48
2369.92
990.055
565.38
1388.25
1522.72
648.796
717.187
741.155
732.915
796.635
687.596
728.674
663.549
926.999
989.905
587.76
478.424
956.752
712.887
1822.25
972.277
774.775
898.282
1234.16
784.813
916.264
591.198
845.366
937.509
1041.81
791.987
707.655
997.195
2629
2480.07
6080.8
946.274
1372.97
981.563
1474.05
812.922
1515.06
1098.65
804.931
811.622
990.968
5380.71
1526.37
2032
635.197
662.906
605.008
863.865
827.014
3633.86
540.592
465.565
1313.89
765.775
438.831
497.242
649.554
424.158
464.669
513.128
402.66
403.211
591.381
1236.98
4331.07
2221.74
3965.61
862.772
1137.07
593.179
446.181
1029.78
719.635
1283.75
1182.86
1272.06
386.556
479.107
480.985
429.815
402.315
335.837
459.825
4174.48
1545.74
3876.94
518.764
982.395
445.548
445.186
774.053
906.634
394.071
716.004
979.523
1214.49
1067.9
707.231
4364.47
563.734
2698.14
641.557
697.04
436.356
618.243
1545.06
3298.07
1575.57
2862.84
1305.34
3054.24
3926.46
1629.87
472.006
1351.95
410.205
3238.18
2086.92
1414.07
1718.62
1043.71
651.833
1183.61
3184.94
2437.78
1639.02
1748.6
1125.42
400.564
818.602
666.433
680.852
981.899
1290.32
682.328
585.362
714.129
622.624
636.163
1344.72
957.227
840.606
1935.15
709.875
766.189
1268.51
576.064
705.074
766.767
716.886
763.166
798.372
719.025
529.866
663.916
601.857
663.504
700.778
612.502
471.714
1074.74
488.714
364.35
411.664
3674.82
388.934
492.131
408.886
425.262
505.889
902.912
4081.8
700.967
746.002
560.132
641.953
621.957
2481.89
334.999
577.652
453.418
382.709
585.038
1182.25
864.304
697.928
622.2
681.289
1401.97
770.106
924.802
687.842
694.14
673.053
806.893
719.7
575.889
1524.19
1388.18
1712.92
2744.95
1561.94
133.941
593.501
3785.14
3302.85
138.348
1323.05
217.206
128.033
129.208
352.905
93.7992
876.44
SCALARS SignedDistance double 1
LOOKUP_TABLE default
21.8251
21.6606
16.1265
13.4566
22.1988
19.5283
21.8491
13.6447
22.0388
20.238
22.1761
21.6466
90.6693
17.8699
23.7566
25.4575
24.5691
8.72306
16.2265
17.7765
46.5454
38.7047
18.1091
37.5424
14.8366
15.9306
19.2908
22.7152
16.5302
22.7431
20.7299
14.8243
21.4207
14.0819
13.6712
11.9529
27.6958
17.1388
17.7659
23.5068
19.1275
22.1614
39.3975
57.7251
28.641
20.9285
22.4515
24.6934
20.8598
21.6069
19.5345
21.6805
20.9387
22.0589
24.9432
19.6296
21.8037
25.1364
16.8879
23.6708
19.075
16.87
13.4648
20.0117
12.2272
13.97
27.5712
14.9685
18.933
24.0828
28.8205
21.4211
56.0291
51.8566
41.085
93.4117
23.0405
28.0528
24.072
19.2804
20.8976
21.7253
20.7502
20.53
16.0812
16.4793
18.7576
15.4855
17.1915
17.5822
14.423
21.3278
21.0182
29.2579
21.6857
57.1047
20.7071
17.2184
17.5314
23.5753
12.8913
16.008
59.3569
16.7817
18.4135
14.3309
14.8273
20.6083
13.3347
19.6674
27.1077
37.0934
60.3115
19.0839
27.6537
16.702
19.2959
19.6467
9.92856
12.1899
14.4895
18.791
15.0863
9.38624
24.3333
14.6539
19.662
31.8695
14.9277
11.9351
12.038
14.7164
23.6732
33.5469
23.9126
16.0108
19.3152
50.6077
25.3952
27.2003
23.6543
23.2149
20.5122
31.6898
22.4608
21.9503
20.5629
16.3885
16.05
17.5492
18.6677
12.9213
20.4232
27.4029
16.8869
35.3201
15.2676
16.9327
15.6674
46.8194
34.4811
21.401
27.7281
29.2522
25.9571
91.8251
44.5064
72.582
26.381
33.2542
29.3981
21.2579
22.3445
22.0565
20.3626
20.8692
17.6667
62.6062
26.704
52.9398
20.8466
20.3904
18.8863
22.9371
20.6435
23.066
18.327
21.1787
21.9375
27.568
21.6475
24.8444
22.466
21.4186
24.3393
24.5391
20.117
22.8646
23.1904
20.8976
21.6606
24.7994
24.6994
24.8405
24.8786
25.0141
23.3511
22.3534
21.1533
21.8562
23.3094
20.4089
24.0079
22.4478
23.8342
24.7861
24.8358
20.3487
21.5027
19.5724
16.9476
16.5758
23.2301
14.5342
15.1615
26.4252
16.2626
16.2348
15.6217
15.4579
16.5465
22.6237
14.3403
11.5528
15.113
11.1149
18.0803
15.1858
16.7795
17.4113
12.0027
26.2401
23.5481
15.8058
16.0508
18.8529
22.4168
15.2518
46.6008
18.9376
32.1009
15.6293
15.9327
17.4968
14.1643
14.8564
13.7643
17.5356
25.3681
31.1537
21.8552
36.6125
35.3885
44.3419
16.5461
31.2944
26.692
12.1347
25.0557
23.8451
34.0567
46.8376
50.4946
61.8432
70.047
26.2094
38.9056
73.9159
69.6429
63.2365
46.5439
53.834
23.4015
21.6156
91.0545
40.2605
24.4261
22.316
60.8176
58.6397
57.877
58.7189
26.6941
23.842
23.7757
26.0578
25.6713
27.0461
34.8484
18.635
19.5611
20.0045
20.4382
17.9784
19.5466
21.3405
19.9981
19.5338
18.166
22.867
21.1727
22.2066
17.7945
20.6005
19.0362
22.9446
21.1928
24.2524
17.7574
18.2599
17.0493
16.0126
15.6621
16.993
14.7225
21.2593
19.1795
16.967
18.8414
17.9987
18.8335
16.9437
16.4654
16.0182
14.5509
16.34
16.6266
15.695
13.2253
16.5644
14.9309
15.7301
15.1857
16.7792
21.9051
21.4795
21.9162
23.2988
20.6523
21.7124
21.5132
33.3011
33.8823
21.1027
22.0038
19.8705
25.0441
25.5266
21.4651
18.6393
18.8694
39.3406
23.7127
34.2415
19.9628
20.488
20.8115
21.4699
21.1211
20.4024
21.7148
23.5186
17.2472
16.9646
22.1228
20.2631
16.9462
13.9073
14.5306
16.1939
15.8984
14.8926
14.7226
13.1259
66.9802
23.5639
21.298
20.0346
22.4452
45.4535
15.194
17.1103
14.8005
13.4853
14.7406
14.7654
15.0214
16.6417
16.7911
12.6143
12.6847
13.536
14.4722
17.3872
16.6877
20.0624
15.8659
20.0724
26.678
22.9749
21.6873
23.0187
21.6293
20.027
25.255
14.9138
22.1976
29.6771
20.4759
13.6933
17.8041
23.159
19.498
42.5315
45.1921
18.8846
20.8714
33.858
15.2234
18.6271
16.2063
19.6484
19.449
20.1333
17.616
19.0742
17.2187
19.3791
19.2295
19.1539
17.7158
14.6583
14.6324
9.62615
9.63499
12.7532
13.765
12.5794
12.1372
18.9501
17.3337
13.6965
50.475
13.7791
16.9437
22.3928
15.5269
50.3864
24.9486
14.067
22.4402
11.2672
11.9697
10.8782
17.2745
13.1354
13.9184
51.646
45.898
38.8846
56.0469
15.4758
13.8855
27.222
17.0411
24.3383
18.2446
28.6071
15.0789
11.702
21.7953
15.0478
12.454
14.3597
13.5391
13.7871
13.5453
13.4583
13.6193
12.8954
15.2469
15.182
26.8887
32.979
26.7116
18.4194
27.3966
18.166
18.5982
21.2129
18.0378
27.8603
14.4855
23.2803
16.6019
18.5876
15.1601
12.4982
19.5537
18.6602
17.5458
58.8373
51.8444
64.3178
54.7306
40.8084
26.3027
20.0475
28.8018
43.5416
22.8861
18.0301
33.2551
20.7215
21.1655
50.0826
41.9141
17.6324
19.0797
17.3276
19.4055
17.6395
19.5899
29.5174
40.9126
22.6362
43.542
22.6534
21.5799
23.4592
21.6778
23.8727
20.2938
20.5421
19.6974
19.955
22.4108
21.0962
24.612
24.3203
22.6871
21.3361
15.8632
13.4613
15.9569
13.7205
15.2335
18.0965
15.0852
18.8902
16.6824
14.4705
17.6393
14.6084
17.3362
16.659
15.1694
16.0049
16.561
14.4339
44.1316
16.5548
21.3476
22.9387
20.6426
14.4858
14.2657
12.8314
10.5152
13.93
21.2469
20.4079
20.5267
20.7331
19.9184
17.2754
20.1102
20.4176
53.3242
19.9807
27.8321
57.1404
69.1331
18.935
19.2121
16.7155
14.5337
14.7022
58.069
54.4642
57.3323
44.1704
21.157
16.832
18.4086
19.7636
18.5366
16.0507
16.7499
16.8282
14.298
21.5157
15.9333
17.1142
21.6906
18.5623
14.3559
12.7987
14.8032
14.2962
15.9518
14.8332
16.0538
13.2354
20.2435
33.8594
21.0464
21.0385
38.1016
33.6157
23.6476
22.7433
28.3708
65.3006
21.5759
26.2367
21.9614
20.4538
21.0425
51.5082
35.8483
45.6688
