# vtk DataFile Version 4.2
vtk output
ASCII
DATASET POLYDATA
POINTS 642 double
-135.279 258.909 1.0687
133.249 268.701 -2.1645
-132.799 -225.922 42.7129
148.239 -233.909 43.1893
1.36244 -176.444 322.257
2.99455 114.372 282.912
3.08865 -82.3093 -124.649
2.36471 201.747 -201.196
187.036 59.3797 -117.645
184.266 4.50682 211.015
-162.157 57.9896 -117.263
-162.766 8.85422 208.892
-165.097 161.011 62.6718
-102.8 71.38 274.114
-40.4546 166.315 129.827
49.5033 168.398 135.768
1.29526 308.689 -16.9189
92.0056 304.461 -106.25
-79.8989 297.926 -103.149
-125.034 121.581 -195.287
-205.261 192.005 -41.773
-172.422 24.1226 38.8157
113.089 75.4926 280.24
146.417 137.754 70.7022
-127.575 -99.1462 297.589
6.2888 2.49394 361.968
-169.209 -133.23 -15.8579
-158.332 -141.623 189.843
4.37293 57.7409 -242.247
-103.898 -3.45504 -176.088
200.652 194.204 -51.6125
135.313 124.168 -198.941
181.401 -144.201 194.864
142.539 -100.249 301.913
102.081 -248.534 243.443
-94.124 -244.948 242.243
0.38167 -253.749 41.6006
-86.126 -215.974 -67.2888
97.952 -218.44 -69.2113
114.056 -6.10384 -178.989
184.033 -143.928 -18.463
192.4 7.3186 57.2786
-162.752 212.64 24.797
-120.401 150.185 81.2745
-109.974 243.801 28.6645
-141.058 40.3843 246.425
-126.335 83.2187 213.024
-148.731 56.3029 182.647
-23.5365 136.206 237.648
-76.2679 113.659 238.289
-51.4867 97.4678 286.844
-34.6226 269.428 31.5993
-59.8929 302.824 -11.6921
33.3475 138.842 237.179
5.67901 167.874 141.737
73.2692 307.114 -12.1052
45.6019 269.824 31.8648
106.461 249.002 26.1276
-48.035 331.31 -53.1046
-106.62 291.585 -48.3675
114.338 306.773 -53.2855
57.3631 332.647 -53.329
-43.7123 257.482 -162.816
2.03357 307.502 -110.282
50.7866 259.189 -164.487
-162.487 242.475 -76.3551
-180.114 232.16 -22.4529
-71.9229 162.481 -209.635
-110.617 216.047 -150.38
-186.725 164.559 -67.664
-175.709 175.314 -107.02
-156.592 85.1029 -154.67
-194.602 191.214 -1.89415
-159.764 77.7482 -25.581
-206.776 166.098 -32.0753
-153.222 157.742 43.3393
-165.705 4.4531 142.05
107.877 157.915 98.4092
162.57 221.949 18.9672
62.2397 98.8198 290.113
85.0292 117.518 242.702
170.64 50.4311 185.992
137.013 84.388 222.084
154.941 41.6548 252.053
-53.6347 44.9075 325.994
4.25346 67.0149 328.5
-150.44 -49.362 256.4
-118.051 8.67078 295.598
3.01224 -54.4193 354.943
-58.9302 -33.7545 339.52
-78.8705 -144.319 325.807
-175.818 -53.5918 100.555
-161.88 -73.8151 209.913
-152.219 -53.6716 -57.5415
-176.586 -72.1456 13.7663
-146.095 -159.991 117.718
-173.345 -139.423 33.9218
-159.469 -185.82 7.11802
-126.329 53.5819 -197.99
-147.539 26.8903 -145.558
3.49757 111.461 -243.333
-72.9255 89.7167 -235.431
-68.3754 -47.9303 -161.129
-67.8457 18.1634 -219.543
2.19577 -2.66177 -215.158
118.624 222.059 -156.451
78.1924 165.28 -211.256
182.433 237.757 -24.193
167.6 251.155 -81.6825
176.696 82.8961 -159.681
181.385 174.38 -115.72
190.148 135.432 -77.229
164.439 -170.27 117.091
165.526 -201.884 215.037
124.307 -237.078 176.698
168.951 -49.5642 261.63
182.034 -130.03 248.493
185.479 -78.3903 209.954
63.4128 -223.166 307.007
131.84 -187.575 295.384
86.4276 -149.08 326.671
59.9714 -260.054 188.942
94.1079 -257.156 42.545
-57.342 -221.447 304.495
1.57537 -251.247 245.295
-82.8138 -255.475 43.2013
-54.9023 -258.775 187.074
-112.002 -234.749 172.319
65.2386 -254.97 -19.5116
130.594 -241.381 -19.6507
-117.355 -235.014 -17.3508
-59.1911 -254.889 -19.1372
61.6787 -174.431 -99.0168
0.800114 -214.955 -68.2433
-54.3159 -173.483 -99.6527
157.23 -190.871 -49.6087
180.778 -195.518 4.64704
74.5568 -49.9 -163.226
107.742 -158.884 -97.8058
172.377 -45.3673 -59.155
155.426 -109.5 -70.2607
164.479 26.8072 -149.038
188.837 -146.196 34.5718
173.903 58.9013 -46.6832
192.698 -82.838 16.558
191.352 -56.7229 104.453
188.374 8.80917 153.584
64.6315 -28.3864 348.568
128.762 7.89307 302.709
62.1537 44.3718 332.058
-146.618 -192.573 216.031
-122.719 -182.632 289.461
-158.95 -132.136 244.095
-96.7337 -153.563 -96.195
-140.294 -183.901 -45.0542
-144.413 -101.688 -67.6322
139.422 53.7501 -201.634
73.3158 17.1248 -221.535
75.6289 89.6085 -238.962
181.478 86.4278 48.6223
198.058 160.465 -27.8704
190.326 196.414 -8.68401
-150.944 236.722 13.5231
-137.897 230.528 27.8347
-122.365 252.177 17.8079
-148.445 144.032 65.7158
-151.023 206.628 35.9764
-169.317 189.488 32.0489
-82.1986 227.477 45.4234
-125.285 222.437 39.2547
-82.8407 158.634 105.2
-153.992 24.8495 227.781
-148.819 46.4239 216.351
-157.59 30.0204 200.303
-117.972 77.6215 245.382
-134.691 63.6571 232.438
-124.159 55.9518 261.939
-137.021 119.917 121.169
-139.057 71.0759 197.732
-128.838 100.399 149.689
-10.588 126.953 260.684
-37.8271 118.515 263.8
-21.4968 106.885 286.601
-61.1102 130.424 215.15
-50.5267 125.958 239.705
-34.3706 142.004 215.153
-77.9536 85.6043 282.592
-66.0182 107.381 263.051
-89.8353 95.3636 258.08
-112.396 109.933 171.87
-104.397 99.5577 226.558
-93.1159 117.786 197.422
-83.4641 270.092 9.45281
-95.7602 280.494 -7.67673
-39.0718 238.009 58.0582
-64.5074 258.199 27.928
-39.524 310.417 -12.9885
-48.1873 289.365 7.44267
-25.9444 292.676 9.16981
17.9744 127.819 260.761
4.00723 139.519 239.387
31.7528 167.734 142.129
18.932 148.814 217.24
45.2144 146.333 214.209
-8.49262 147.707 217.923
-17.5347 168.323 139.077
98.2698 292.216 -9.4593
87.3672 280.738 7.39745
120.893 261.162 12.9191
32.528 291.462 7.70043
62.1291 292.031 6.96766
49.6276 312.175 -14.3628
79.5399 227.685 54.5864
70.1233 265.078 27.5165
47.2313 237.793 61.5731
-11.9073 238.022 69.6126
18.9027 237.066 71.3866
1.02531 268.716 38.0652
-81.185 303.835 -32.953
-125.667 276.636 -24.1138
-27.6283 324.79 -36.5009
-53.3276 320.793 -36.6388
-94.2387 302.579 -73.5448
-71.8293 320.483 -54.3125
-65.6368 323.895 -74.6374
122.14 289.32 -32.0403
92.7658 313.086 -35.2509
77.355 328.279 -76.2499
87.0878 325.836 -54.4615
107.001 312.65 -75.2395
66.2167 323.464 -36.3433
34.1611 324.864 -37.2335
-21.4221 232.489 -185.742
2.16175 260.203 -168.358
26.5269 233.445 -186.781
-47.6172 309.645 -111.747
-25.2304 285.916 -138.896
-62.6708 281.339 -132.649
73.3901 285.163 -134.525
30.5696 285.689 -138.827
55.888 311.186 -111.869
2.54852 329.563 -53.0804
33.3451 330.25 -79.1105
-27.4367 330.064 -78.9857
-154.224 261.616 -31.7741
-160.057 247.865 -12.2898
-121.51 271.055 -89.249
-138.975 269.908 -59.6028
-199.254 210.671 -31.6687
-175.835 240.34 -43.914
-190.342 214.313 -58.8364
-37.5631 183.768 -206.32
-56.5577 215.816 -187.565
-117.342 168.44 -173.82
-88.5135 191.698 -183.652
-101.095 140.999 -206.612
-75.7651 240.672 -160.794
-94.5292 257.712 -127.481
-167.211 100.028 -96.3468
-168.035 118.097 -109.593
-162.702 70.047 -134.183
-192.954 186.114 -75.0129
-183.447 171.381 -85.9684
-199.26 187.225 -50.7742
-142.819 103.119 -177.021
-161.121 133.482 -128.878
-146.194 145.478 -150.823
-142.498 234.151 -113.259
-151.182 193.916 -130.902
-176.407 207.353 -95.6139
-172.43 224.761 0.886115
-202.049 194.366 -26.0621
-193.624 206.595 -12.1213
-181.615 199.865 14.7723
-180.449 183.833 22.0458
-164.022 66.0082 -92.6534
-176.965 133.765 -52.5977
-197.599 126.324 -13.6129
-200.058 137.976 -19.3163
-182.142 58.9337 18.3422
-205.324 174.877 -34.4141
-201.749 185.51 -33.9699
-158.154 32.6825 173.346
-163.664 9.29505 189.269
-170.181 165.619 52.4398
-147.922 83.7521 114.66
-173.391 3.57203 85.6105
-161.219 45.3127 109.169
-172.201 74.7479 22.4509
-198.873 192.038 -25.676
-190.829 169.229 -21.3453
-194.39 189.823 8.05883
139.8 236.582 25.4857
153.289 242.04 12.1093
77.5814 164.478 119.925
120.165 223.247 41.5889
164.256 204.741 22.7368
147.463 216.643 32.2011
130.909 149.787 80.0388
29.9188 107.072 287.513
47.998 120.017 264.967
99.7884 98.6407 263.826
76.5606 109.847 266.764
88.2142 88.5913 287.66
60.6967 129.739 240.658
68.2557 136.473 217.259
179.899 27.9221 199.105
165.232 45.7796 219.491
171.901 21.5493 231.811
142.38 93.7473 176.804
154.835 69.1768 204.18
155.129 80.6764 157.703
135.569 60.1115 268.246
146.561 65.5774 239.323
128.353 80.8627 252.71
97.7845 123.405 208.383
113.057 102.797 234.693
122.951 109.068 192.852
-22.6199 85.0239 309.338
3.20405 94.2309 306.453
-81.8209 61.7133 300.728
-54.6592 73.7969 307.714
5.44885 34.1708 348.07
-23.1192 55.1012 331.188
-21.4062 23.5567 348.398
-158.222 -18.0691 233.848
-147.933 7.35233 252.594
-122.229 -43.9088 295.829
-137.06 -18.8764 275.836
-143.287 -74.8847 277.791
-131.711 27.445 272.12
-113.086 42.6 286.423
-1.4191 -121.593 327.155
-43.2157 -106.421 331.422
-49.3138 -161.373 328.366
-19.4457 -9.09042 359.382
-26.1686 -42.4235 352.011
6.18247 -17.6435 367.963
-105.253 -123.455 314.3
-74.5458 -89.8601 329.836
-98.5401 -71.0984 319.496
-88.2975 28.0751 313.964
-92.9431 -13.9766 320.314
-53.8426 8.93995 339.968
-164.524 -21.3069 177.085
-163.307 -29.8383 208.043
-178.769 -21.1022 74.8638
-174.832 -22.1829 117.078
-160.516 -116.131 201.81
-163.353 -64.4955 163.811
-162.338 -98.4737 150.084
-154.206 22.5889 -105.262
-156.248 -1.42659 -52.8057
-174.708 -107.007 -0.725264
-172.107 -75.3436 -9.34543
-165.853 -106.696 -27.0667
-172.151 -24.6297 11.7101
-178.082 -23.9038 35.5002
-140.122 -207.055 70.8548
-158.555 -185.807 38.7637
-149.503 -208.379 22.0437
-152.718 -151.352 108.93
-162.499 -160.903 62.6201
-151.303 -158.582 167.117
-167.87 -159.475 -5.55584
-170.301 -160.896 22.4482
-174.697 -137.303 10.4468
-177.538 -61.4597 44.5843
-176.28 -109.322 20.8421
-172.558 -97.681 62.0559
-154.559 54.3564 -153.934
-155.994 40.7617 -131.68
-128.13 85.7978 -199.94
-142.822 69.4884 -179.829
-131.217 16.3731 -163.012
-138.145 40.0774 -174.108
-119.141 26.0302 -188.979
2.39802 152.328 -224.918
-39.4116 137.873 -230.374
-35.9146 72.8717 -242.747
-37.4738 100.527 -242.429
4.93104 83.5614 -249.375
-75.6874 122.096 -229.326
-102.372 107.277 -220.581
-52.3597 -60.2807 -148.236
-35.1074 -17.5048 -200.326
2.81533 -22.4572 -195.591
-89.1057 6.05538 -199.501
-64.2657 -7.11391 -201.069
-79.2569 -27.051 -174.006
2.51161 22.8813 -231.061
-36.3489 6.37382 -220.289
-37.4555 33.7347 -233.705
-104.172 70.4046 -220.941
-72.4805 52.0861 -232.734
-99.5251 36.0771 -213.635
[...]
POINT_DATA 642
SCALARS Mean_Curvature double 1
LOOKUP_TABLE default
0.0176729
0.0179127
0.0145431
0.0151237
-0.00499829
0.0168126
-0.0130126
0.0024938
0.0279767
0.0157912
0.00858265
0.0206965
-0.159854
0.0115314
-0.000793356
0.00371148
-0.00448374
0.0167087
0.0118596
0.0122704
0.0754716
-0.0192519
0.0131959
-9.75728e-06
0.00892446
0.0142905
0.011181
0.00588241
0.00266477
0.00604275
0.0112655
0.0104183
0.00825167
0.0105234
0.0122148
0.0162607
-0.00194664
0.0161461
0.016491
0.00624385
0.0078136
-0.000728661
0.0170106
-0.00621908
0.00850808
0.0117727
0.00915865
0.00347769
0.00917777
0.00698944
0.0119882
0.00819996
0.013271
0.00976123
-0.00397274
0.0175661
0.00727415
-0.00251896
0.0358526
0.00546567
0.0237783
0.0298471
0.00959867
-0.000448809
0.00946806
0.0117128
0.0183873
0.00769504
0.00260762
0.00363528
0.0182561
0.0112536
-0.0736695
-0.0152751
-0.197579
-0.026712
-0.00102259
-0.00131731
0.0219781
0.0125267
0.00700543
0.00812348
0.00541918
0.0110439
0.00900896
0.0126755
0.00258409
0.0114995
0.00753978
0.00462147
0.0117746
0.00488394
0.000505937
-0.000577877
0.00873276
-0.0274553
0.00772504
0.0103046
0.0170439
0.019104
0.00757396
0.0123379
0.0220347
0.0135982
0.00831011
0.00554922
0.00574839
0.0213568
0.0158414
0.0173115
0.00870469
-0.00776237
-0.0254181
0.0217116
0.00817918
0.00387738
0.0196548
0.00336313
0.0170244
0.0141599
0.00938823
0.00738965
0.00877109
0.0168343
-0.00823321
0.0115367
0.00667852
0.0136235
0.0120646
0.0177616
0.0174133
0.0146201
0.00870673
-0.00427037
0.00993943
0.0159775
0.0261164
0.0203499
0.0127644
0.00197497
0.0125451
0.0116503
0.00172099
-0.0121859
-0.00441968
-0.000562163
0.00886098
0.0074838
0.008192
0.00940752
0.011439
0.0142429
0.0155595
0.0100652
0.0114978
0.0197787
0.0154558
0.0124731
0.0105442
-0.0052136
0.00854578
0.00485407
0.0144434
0.0125506
0.0168941
-0.0431562
0.00797747
0.00187666
-0.00493107
0.00762597
-0.00353581
0.0118568
0.0116
0.00924144
0.0118625
0.0126489
0.0118203
-0.0528328
0.0213271
-0.010774
0.00977777
0.00966953
0.00791769
0.00423398
0.0079637
0.00747203
0.0116008
0.0112618
0.0111877
0.00523706
0.00888724
0.00746917
-0.000105351
0.00570476
0.00117579
-0.000623125
0.0172858
0.00796224
0.00800771
0.00906131
0.00999447
0.00092897
0.00882765
0.0122864
0.0106026
0.00351333
0.0106301
0.00378726
0.0121149
0.000256241
0.0126514
0.0131502
-0.00303712
0.00176373
0.00371318
0.00981119
0.00803057
0.00566261
0.00851564
0.0142827
0.015523
0.0127349
0.0168623
0.0259885
0.0251364
0.000311979
0.0123616
0.0239595
0.0326033
0.0231518
0.0135674
0.0104751
0.00890392
0.00954684
0.009225
0.0175467
0.00627413
0.0101513
0.0116061
0.0026298
0.0128916
0.0124743
0.0166547
0.0191507
0.0246702
0.0117687
0.00677368
0.0125042
0.0346121
0.0171722
0.0131117
0.00219738
0.0113581
0.0037395
0.0056478
0.0106678
0.0096094
7.63729e-05
-0.000938025
0.00750031
0.016263
0.0406847
0.000749166
-0.0264112
0.00981821
0.00423787
0.00318587
0.010448
0.00893083
0.0156521
0.00843076
0.0965892
0.0187804
0.0268717
-0.111257
0.00442815
-0.0102973
-0.132699
-0.0811347
0.0477445
0.0466383
-0.0605913
0.00287405
0.00935191
-0.0939805
-0.00260916
0.00363592
0.00219208
-0.0105742
-0.0297177
-0.0204446
0.0837427
0.0164947
0.0165246
-0.000405203
0.00358114
0.00693309
0.0112722
-0.00107776
0.00571761
0.00793021
0.012138
0.011901
0.0133563
0.00948054
0.00596143
0.0141133
0.00765233
0.00896584
0.00603199
0.00662455
-7.29727e-05
0.0136987
0.0105039
0.0126657
0.00573124
0.00834697
0.00539254
0.00839486
0.0154669
0.0112124
0.0112115
0.011342
0.00860707
0.0111336
0.00914634
0.010829
0.00271479
0.00779755
0.0126303
0.0123044
0.0121185
-0.00524594
-0.000110385
0.0078498
0.0174009
0.0071077
0.032414
0.00808649
0.00873678
0.00895104
0.00994208
0.00844255
0.0100498
0.000442366
0.00616261
0.00873516
0.00858219
0.00111289
-0.00257242
0.000384433
0.00762067
-0.00237939
0.0116347
0.00640064
0.00440948
-0.00299341
0.0167738
0.0077058
0.00672889
0.015691
-0.0162409
0.0438271
0.0291751
0.0156217
0.0152214
0.0158945
0.00362336
0.00700986
0.000743559
0.0184985
0.010209
0.0132045
0.0136388
0.00758625
0.0120559
0.0122766
0.00174959
0.0080653
0.00932812
0.0118203
0.0203305
0.0148796
0.0173404
-0.00691073
0.00957057
0.00144599
0.0122859
0.0091881
0.0232233
0.00861083
0.0128638
0.0103645
0.0160752
0.0153066
0.0157592
0.00903418
0.00237859
0.00221073
0.00895796
0.0100139
0.0088059
0.00495893
0.0141397
0.0168466
0.0209529
0.0098482
0.0238226
0.010352
0.0064464
0.0217136
0.0109768
0.0262128
0.00156134
0.00506522
0.00964357
0.0176558
0.012179
0.0166253
0.00931859
0.0166934
0.00566741
0.00919056
0.00215845
0.00610651
0.017263
0.0068891
0.0160726
0.0163354
0.0135441
0.017898
0.0120806
0.00839443
0.00971667
0.0116717
0.014606
0.00565243
0.00117927
0.00768895
0.00972905
0.0204961
0.0220295
0.00534761
0.0146998
0.017257
0.0176301
0.00650688
0.0140698
0.0112634
0.0181738
0.0153316
0.011747
0.0124151
0.0129059
0.0166721
0.00784118
0.00642269
0.000915203
-0.0108577
0.0237076
-0.0062042
0.0111798
0.0170236
0.0168092
0.0143338
0.0104788
0.0109981
0.0119336
0.00662393
-0.00405415
0.00402155
0.00761728
0.0108139
0.0109022
0.017981
0.0279153
0.030088
-0.00989015
0.019164
0.0159035
0.0108584
0.0067712
0.017202
0.0194239
0.0124517
0.0158505
0.0176651
0.0168487
0.0195129
0.0161266
0.0140238
0.00904914
0.000885594
-0.0075758
0.00479808
0.00984167
0.0113406
0.00762781
0.012927
0.0134987
0.0114301
0.00125449
0.0137974
0.0118123
0.0174218
0.0153858
0.0142766
0.0158628
0.0119452
0.0198342
0.0143237
-0.00551105
0.0118726
-0.00680451
0.00994716
0.0184122
0.0200696
0.0158264
0.0102319
0.0343768
0.014155
0.00916106
0.0026757
0.00515995
0.00670556
-0.00382484
-0.0109353
0.0157316
0.00558663
0.0128877
0.0147741
0.0122678
0.00315817
0.0344239
-0.0111439
0.00428443
0.000670484
0.00343424
0.00107917
0.00746416
0.00569417
0.0142056
0.00100758
0.0151675
0.00253973
0.000113841
0.00105365
-0.00106477
0.0217587
0.0272788
0.00322949
-0.000136639
-0.00289651
0.0045487
0.00418228
0.0130379
0.0226225
0.00819074
0.0116357
0.00947412
0.00944244
0.00789148
0.00590372
0.012266
0.00834159
0.0117032
0.0119426
0.0101429
0.00857269
0.0138103
0.000287183
0.0122735
0.0135471
0.0109078
0.0163199
0.0184735
0.0104333
0.0163547
0.015105
0.0167175
0.0127867
0.00515721
0.00349943
0.0145935
0.00945864
0.0171863
0.0183455
0.0187315
0.0156814
0.0124231
0.0235093
0.0154204
-0.00995059
0.0185607
0.0123101
0.0133251
0.0158126
0.0135099
0.0376698
-0.0109198
-0.0153586
0.00344778
0.0108706
0.0123271
0.0139611
0.00624663
0.012747
0.0120768
0.0114687
0.0178974
0.0145687
0.00861903
0.00897778
0.0118257
0.00888783
0.0119698
0.0073414
0.0152474
0.011418
0.0156738
0.0163385
0.0143259
0.0114677
0.0152835
0.00708563
0.0252609
0.00357524
0.00202021
-0.000123394
0.00395084
0.0259462
0.0214921
-0.0030035
-0.0200978
0.019831
0.00282753
0.0213959
0.0286836
0.0231244
0.0306124
0.0274316
0.0168705
SCALARS CoVolArea double 1
LOOKUP_TABLE default
767.674
839.553
1079.54
1151.3
1708.91
663.302
3944.53
1629.87
441.546
736.495
686.629
639.005
670.256
898.987
3472.96
2434.27
1409.46
1437.43
1487.02
1420.7
405.354
1454.89
916.956
2338.41
1556.24
802.253
795.724
1508.95
1363.59
2348.75
676.709
1570.08
1526.8
1731.29
1575.87
1403.84
3386.32
961.699
1031.91
2461.57
971.842
2054.1
574.499
2999.93
916.439
781.821
1102.93
1502.5
717.612
934.441
915.069
1200.48
876.505
771.309
2348.85
736.845
1330.83
1112.75
806.196
1099.28
881.677
915.618
1566.34
2034.89
1675.61
1530.74
704.531
1635.69
2092.03
1221.71
1239.11
1189.78
255.276
4306.73
280.953
3913.78
1746.51
3081.34
445.972
958.656
874.951
1009.17
1014.39
948.081
1266.8
1042.27
1273.44
1388.06
2278.68
1866.94
1457.5
2367.52
1409.74
1984.89
1074.33
2353.26
1426.24
820.895
916.957
858.478
1562.1
1223.38
1041.78
1050.03
1161.93
2029.38
1734.05
860.506
1488.83
1076.72
1565.8
1068.34
2271.03
1122.66
1633.43
1487.01
1016.97
1220.8
1626.64
1597.76
1665.46
2215.99
1787.73
1605.27
2142.57
1595.18
1976.82
1536.37
1462.03
998.287
925.505
1304.8
1504.24
1732.62
1268.7
995.144
765.82
1154.82
1466.73
2118.44
1677.29
1052.59
1776.99
3339
1100.05
2755.06
1283.28
1751.98
1463.49
1253.42
1072.19
1431.32
860.279
1560.56
1014.67
1431.36
1009.19
1171.63
1258.59
2184.7
1049.87
487.122
683.003
548.049
771.879
1906.62
1261
706.35
2846.96
2037.23
4163.69
788.093
735.077
624.927
856.079
745.601
770.386
1559.42
1094.23
1353.85
759.39
835.688
848.478
2303.7
773.179
1492.58
840.875
784.3
868.767
1930.83
1133.78
2384.76
1032.86
1099.69
2350.35
1277.21
819.354
869.142
1306.38
821.267
696.968
2166.75
1371.99
1268.78
1361.03
2299.78
941.792
873.804
821.419
1482.31
828.801
968.935
2449.7
1192.35
2060.07
2098.07
2260.82
1705.16
1006.11
1053.27
991.992
661.782
1202.42
758.445
1065.64
1058.03
809.708
1158.72
688.182
1044.62
693.857
1066.56
1642
1766.85
1692.9
1547.92
1768.58
1458.41
1516.02
1875.59
1685.39
1236.49
1734.24
1636.84
946.685
779.939
1799.57
1326.87
611.905
1029.41
1079.63
1888.2
1635.87
1995.16
1749.1
1403.24
1688.6
1950.15
1331.45
1356.45
895.377
703.591
871.646
366.35
1269.07
1452.49
1822.67
2033.87
2016.53
1434.26
726.589
226.019
556.743
522.947
319.654
2547.23
2228.72
802.861
1378.04
2021.2
685.602
122.627
1583.32
921.511
1196.46
2717.07
2156.73
3861.92
4038.62
275.953
2094.05
814.534
648.925
689.212
3271.29
2061.44
1105.82
1406.48
2525.4
941.004
908.475
837.404
779.699
832.602
767.019
1785.49
709.241
875.684
948.313
1967.29
1023.79
2031.6
856.23
817.041
841.672
2315.53
1065.23
2277.3
1014.7
893.012
1103.81
1043.97
1012.87
1114.73
1122.24
1140.87
1118.66
1718.79
1349.53
1318.36
977.293
1036.97
2943.5
2286.28
1764.53
1144.14
1718.36
882.493
1438.76
1911.95
1906.95
1480.5
1924.23
1598.99
1699.98
1069.14
1558.85
1750.91
1357.57
2227.04
3104.71
1464.93
3839.33
779.34
1932.86
1200.66
3089.6
1550.78
2073.13
1403.75
967.935
2674.12
1201.14
1124.56
758.78
823.284
678.513
1669.1
1090.55
2964.01
748.099
677.748
1033.87
866.223
1568.22
772.836
916.914
2087.16
1774.13
1320.74
1306.49
1093.22
1314.15
1158.58
2853.34
1508.02
2895.99
999.632
1062.41
1178.96
1301.55
1091.7
1352.33
1200.17
1316.74
1101.15
1723.54
1951.18
1847.94
1685.12
1509.07
1734.75
1992.54
951.169
1085.77
1040.83
1114.84
737.037
1216.63
1688.07
686.661
1305.99
682.122
1995.18
1629.43
1340.77
739.416
1347.74
978.008
2074.2
1546.84
2135.74
2111.59
2256.35
1855.4
884.532
1447.21
1411.02
1194.91
1126.13
1459.09
1257.36
1242.49
1075.37
1336.1
1135.61
1410.57
1139.83
860.563
785.074
1578.01
1260.76
1961.47
1700.27
1415.34
1543.25
1685.93
1309.11
1514.33
1281.82
1618.88
1778.62
2161.08
1484.26
1310.29
1712.23
2534.07
2700.13
4487.87
1573.37
2038.89
1672.66
1993.62
1457.17
2035.07
1782.67
1488.86
2027.61
1736.1
4117.03
2232.25
2166.88
1194.9
1545.17
1215.31
1661.26
1613.82
3137.32
1051.25
1021.63
1844.41
1210.42
963.238
1010.13
1207.32
933.782
989.102
1077.72
918.632
910.435
1057.34
1750.16
2892.43
1992.92
2746.32
1389.86
1552.79
1004.11
895.284
1447.09
1239.98
1973.78
1800.6
1905.86
968.326
1052.43
1067.6
999.293
760.834
834.806
883.645
2875.73
1278.85
3454.94
1011.45
1269.83
954.192
963.51
1116.1
1147.99
756.19
1200.88
1551.39
1623.17
1746.72
1661.46
4007.23
1113.7
2608.29
1090.43
1263.91
875.056
886.319
1456.49
3028.63
1451.71
2904.8
1623.55
2878.47
3309.43
1985.03
863.811
1529.49
764.302
3116.22
2175.2
1680.61
2034.81
1507.93
1097.09
1618.15
3190.84
2678.6
2191.43
2196.36
1710.67
939.966
1268.27
1181.95
1135.41
1431.24
1843.83
1081.92
1051.38
1115.46
1063.41
1158.69
1929.27
1512.22
1422.94
2176.74
1324.45
1202.29
1444.2
854.319
1289.36
1356.8
1278.88
1421.24
1503.91
1098.46
734.861
873.932
1058.44
1257.21
1431.67
1282.02
987.129
1051.43
984.506
909.037
975.682
3414.42
871.71
933.902
856.187
911.942
1033.39
822.645
3769.53
1296.27
1022.56
978.007
1162.58
1095.89
2577.82
810.137
1016.16
871.367
888.725
1155.04
1512.36
1344.77
1153.36
1137.74
1093.49
1807.71
1343.95
1420.39
1227.04
1187.34
1262.66
1395.91
1347.25
914.527
2006.19
1950.56
2299.8
3044.17
1422.88
471.264
795.692
2685.74
2899.43
609.586
1436.26
419.135
517.086
519.772
997.573
458.547
1367.49
SCALARS SignedDistance double 1
LOOKUP_TABLE default
69.7236
69.366
56.4912
51.6689
53.9127
68.9719
76.5402
51.0542
76.2883
68.0633
77.86
75.8835
127.819
67.0568
84.1296
84.3262
69.0467
42.5281
47.6071
55.0104
81.6186
83.6276
64.341
90.4692
54.113
52.5959
70.2318
74.0082
54.7904
69.1604
69.3357
50.7387
68.8145
51.9207
42.7238
46.2941
62.1861
55.6926
56.4848
68.3093
64.4223
75.1541
84.0835
99.3476
82.2079
70.3136
79.1923
81.2577
74.3185
76.2932
67.1712
76.9079
70.9185
73.1584
86.3218
68.9666
75.8192
79.7264
58.8072
63.5865
60.0068
59.1801
46.5085
50.3938
45.2082
50.1134
66.0089
50.0035
53.8526
76.4058
73.2815
67.467
89.6711
94.1082
94.4245
107.169
77.4786
84.0851
79.0146
65.5944
72.7822
75.4763
74.0599
67.3397
57.9648
59.5449
66.1704
59.5119
51.7418
54.1471
48.2703
72.9651
73.194
80.5413
75.217
79.7641
72.8694
62.9914
59.9255
76.7221
48.7227
50.9268
90.6826
60.155
63.7008
49.2887
49.4169
64.228
49.1506
60.5216
67.3417
81.1804
79.1651
61.7538
66.3598
60.0271
64.6427
68.3744
37.1252
42.0236
48.6233
61.3666
51.3767
36.3511
54.7946
50.9609
61.4112
70.4741
50.2426
46.1529
49.49
50.0102
71.2609
69.4418
71.329
57.4706
63.2603
89.9085
70.1283
76.2507
69.7042
70.8523
67.0772
85.4552
75.6586
71.1263
73.2176
50.8873
57.3597
56.6494
63.042
45.478
70.0713
69.6021
60.0928
77.1923
56.25
58.8717
50.6473
88.7067
81.8324
77.2053
75.0233
80.8549
76.5955
113.483
90.5153
99.2971
84.9043
87.6325
86.4834
73.1271
76.6063
77.8467
72.827
74.5426
68.0022
96.8291
81.0961
86.8791
71.4579
72.0175
67.9575
78.4216
75.2013
77.3146
66.8794
72.1167
72.0742
86.1731
77.935
83.4908
77.9307
73.93
80.775
80.0287
68.9285
74.8804
73.1534
71.5214
74.6432
86.3727
79.2801
77.3165
78.3052
85.5841
72.2475
75.8928
76.7953
71.8267
73.8159
68.378
81.0735
77.3628
79.8343
81.1293
80.8306
72.9836
66.3787
63.1697
61.9518
61.8423
55.4146
59.4257
50.0033
64.914
61.8889
46.4109
57.0172
49.3987
61.3265
66.8393
48.4006
45.1437
47.8712
43.1752
47.2113
48.3732
46.7906
47.9841
44.4422
66.3692
55.47
48.3098
59.6675
65.5072
50.3866
52.5496
72.6541
56.489
58.6648
51.0017
48.7943
55.4821
50.7211
50.8934
48.5245
51.8756
78.6912
80.021
74.8322
73.9484
73.4572
76.6377
60.538
77.4458
68.1749
49.1854
62.8352
59.7614
72.8277
83.7563
79.0748
90.3346
98.5869
81.9705
86.3174
114.008
107.589
103.105
90.46
83.0063
79.4776
76.9726
122.19
85.281
79.9158
79.2726
99.1184
81.88
85.5503
96.7054
78.1995
72.9507
81.7427
85.3579
82.9462
83.7027
88.5339
67.1851
70.1064
69.6022
69.9822
64.6479
72.4514
74.8675
72.2048
70.9529
67.569
79.5507
73.9931
78.7574
65.276
71.3241
69.992
76.2794
73.7072
78.2806
63.6778
64.0904
62.2532
61.7898
56.1248
59.2504
55.1399
69.2604
67.8462
59.1906
62.5664
62.2801
65.006
63.1532
53.4195
53.3631
50.3994
52.3473
52.0518
50.6329
49.9312
51.804
54.6756
58.2399
55.4162
55.9709
75.9091
74.6488
77.2884
77.426
71.787
74.5616
73.6211
87.1395
86.1345
71.7956
75.438
71.6551
79.5561
79.2007
65.282
65.2259
59.7165
79.6798
72.5097
78.4371
65.63
67.155
71.7892
74.7616
73.4655
71.7028
71.444
78.2999
56.5038
62.1586
69.862
66.1039
63.4377
50.1482
48.8859
53.9028
50.0177
52.1647
47.5138
50.2753
92.2945
69.1409
70.2018
64.3779
67.5897
78.3584
57.5717
60.9459
54.7663
52.4155
53.3677
58.0931
47.9828
50.4602
50.438
46.5774
48.6318
48.2015
51.9645
63.7452
56.8705
61.0647
53.891
67.9087
56.4781
49.6154
69.5183
70.6933
75.7587
60.2613
66.8749
53.98
73.7549
74.6568
65.3028
46.4049
55.714
58.1616
60.7262
80.2067
77.4223
66.2845
66.6626
73.2924
53.22
60.9954
50.3474
63.6262
65.5413
69.7225
53.7726
61.7244
57.3027
67.2959
66.8588
66.3616
49.8584
47.5151
50.1643
38.0094
36.5373
36.557
48.3369
45.824
47.1379
61.2259
49.9889
47.954
78.7326
50.089
54.3988
60.5531
53.2649
80.4831
73.913
44.9
47.1151
41.628
41.5992
36.8122
47.4382
42.8288
52.5738
80.2491
81.3002
80.3236
81.853
52.7181
51.6841
63.3169
53.3821
64.3879
59.0609
63.4683
49.2057
47.6124
58.5414
52.5445
49.3666
48.3926
52.142
52.2884
49.1247
50.9648
47.8747
51.0514
52.6664
52.8226
85.9422
83.2017
84.7773
59.3815
71.7499
62.94
62.6029
67.016
58.4791
60.088
54.359
62.1256
50.1163
54.1057
53.5457
50.2172
64.8921
57.5534
63.1561
90.6423
86.5026
87.048
89.9564
78.3865
73.5313
61.3006
85.3173
91.7904
73.596
66.1462
73.9466
68.7067
66.6244
96.0344
80.4688
61.7706
67.6827
65.1821
61.3778
62.3966
65.5317
66.4753
74.4777
78.2641
89.1128
75.0242
72.9306
76.5174
72.0536
74.991
70.7134
71.8738
67.8955
69.441
74.5817
72.7974
75.3225
79.223
75.8911
72.4408
51.5315
50.3433
52.2094
49.0831
52.0078
63.1463
59.2198
61.0432
58.2871
53.5897
63.2228
54.4046
59.0627
60.0017
59.1262
53.6222
55.9225
53.2597
81.8477
53.6345
62.8071
71.3733
70.3374
44.964
52.284
47.1921
39.3453
42.3455
72.6262
71.0428
71.4696
68.5262
60.7968
56.4692
60.2214
68.7901
87.0884
61.2417
73.2013
92.9981
88.8713
56.3258
65.3237
61.264
54.7803
56.1109
94.2142
85.9847
98.6096
81.7592
71.1361
61.8155
67.9931
69.9132
64.3466
60.8759
61.5726
57.6093
51.619
68.9741
55.06
61.0494
66.5459
63.2844
49.0226
47.963
48.5981
48.1299
53.855
56.1252
52.7775
50.4345
74.2126
78.2992
74.2477
76.4586
88.3888
80.5955
77.173
79.2907
83.1571
94.6125
71.9856
80.8009
78.9738
74.883
75.4527
95.454
81.9782
87.8206
