# vtk DataFile Version 4.2
vtk output
ASCII
DATASET POLYDATA
POINTS 642 double
-131.317 252.259 -3.40463
129.299 262.25 -6.77149
-127.369 -220.869 41.7688
143.774 -228.779 42.2109
1.3474 -176.057 315.328
3.21148 106.826 277.404
3.14744 -76.8413 -115.746
2.53599 198.816 -194.849
177.264 61.5427 -117.375
175.465 2.79501 208.937
-151.941 59.9701 -116.636
-152.728 7.31844 207.376
-160.178 157.755 57.0364
-97.2847 66.2299 269.166
-36.575 157.149 124.288
46.6006 158.861 130.33
1.18393 301.151 -22.5078
89.5396 300.479 -102.999
-76.7846 293.796 -99.9567
-119.834 119.619 -190.717
-195.164 193.193 -40.5512
-161.776 23.4321 35.9446
108.082 70.4661 275.399
138.193 132.755 65.0346
-122.462 -99.2586 292.43
6.7679 0.0858873 355.217
-160.159 -132.33 -12.8467
-148.429 -140.37 190.504
4.65902 59.8524 -235.019
-98.3605 1.95553 -171.366
191.571 193.023 -51.1838
130.781 122.103 -194.278
172.352 -142.595 195.714
138.157 -100.319 296.507
99.9307 -243.466 242.037
-91.1528 -239.758 240.872
0.281815 -245.885 40.239
-83.8796 -211.424 -61.8749
96.5288 -213.672 -63.6099
109.043 -0.709731 -174.1
175.85 -143.018 -15.4245
182.274 5.68042 57.6498
-157.291 208.026 18.2292
-114.866 142.616 74.1176
-107.816 237.412 20.4269
-133.068 36.9167 242.753
-118.516 76.4315 210.5
-138.618 52.4146 181.188
-21.2637 127.245 233.584
-71.3164 105.229 234.798
-48.5985 90.9745 281.334
-32.2429 262.375 24.3161
-56.824 295.872 -17.11
31.9094 130.035 232.967
5.90367 157.565 136.016
71.0517 300.179 -17.5955
43.9724 262.6 24.7545
103.655 242.571 17.8206
-46.5348 324.015 -54.6014
-102.011 284.62 -49.4168
109.636 300.93 -54.7687
56.8046 325.178 -54.834
-42.1799 253.51 -158.107
2.06366 302.214 -106.335
49.7403 255.288 -159.874
-157.854 238.246 -73.912
-173.979 226.994 -24.7627
-69.7379 159.416 -203.947
-106.583 212.558 -145.372
-177.498 167.525 -65.0459
-167.85 175.153 -102.433
-148.42 84.8783 -151.307
-188.209 190.597 -5.31911
-148.873 80.598 -22.474
-196.103 169.721 -30.6524
-144.933 162.077 43.7552
-155.361 2.59875 140.952
101.617 150.785 92.6871
156.252 218.419 11.6541
60.0884 92.2946 284.56
80.5629 109.397 239.134
161.771 45.4402 184.707
129.768 77.7973 219.604
147.478 38.0894 248.327
-50.6134 41.5708 319.503
4.48786 62.3223 321.878
-142.24 -50.1334 252.782
-112.342 7.2685 290.102
3.41175 -52.1347 348.491
-55.758 -33.6891 332.941
-77.0511 -143.838 319.543
-165.96 -52.73 99.4685
-151.867 -73.4659 209.635
-142.094 -52.9685 -54.1288
-166.389 -72.4171 15.0147
-140.803 -151.658 117.135
-163.671 -138.069 32.5894
-151.608 -182.419 7.93833
-120.588 55.4976 -192.816
-139.043 30.7564 -142.178
3.73598 109.458 -236.986
-70.781 89.4865 -228.849
-69.0755 -42.2299 -153.704
-65.4203 22.095 -213.036
2.29584 2.61925 -208.56
115.014 218.868 -151.845
76.4349 162.356 -205.396
176.172 233.169 -26.0109
162.935 247.026 -79.6767
169.712 82.5673 -156.056
174.683 173.142 -111.608
179.678 136.244 -75.5742
158.772 -161.784 115.908
158.71 -197.765 215.055
119.849 -230.804 177.429
161.812 -50.2518 257.727
173.814 -129.431 246.15
176.138 -78.1535 209.45
63.0885 -219.967 303.336
128.253 -185.419 291.506
85.0136 -148.721 320.211
59.8769 -252.331 190.86
93.2674 -250.249 41.8089
-56.6091 -218.252 300.825
1.61745 -244.843 243.046
-81.1949 -248.737 42.5291
-54.5313 -251.095 188.659
-106.71 -228.805 172.82
65.2037 -248.509 -17.4635
127.628 -236.303 -17.532
-113.529 -229.967 -15.2114
-58.892 -248.415 -17.1196
62.0057 -170.926 -90.5621
0.741765 -209.241 -62.0487
-54.3963 -169.862 -91.2385
151.824 -188.067 -45.0341
173.015 -192.709 5.49499
74.418 -43.3488 -155.496
104.083 -156.793 -89.8433
163.272 -43.9861 -55.9534
148.685 -108.228 -63.7779
157.392 31.0008 -145.288
180.06 -144.509 33.2988
163.041 59.6721 -46.0699
182.653 -84.0381 18.0583
181.799 -55.8321 103.528
178.513 7.37809 153.175
61.77 -27.9202 342.403
123.511 6.29548 297.161
59.643 40.8873 325.63
-139.252 -188.799 215.831
-118.573 -180.549 285.672
-149.683 -131.74 242.274
-92.4743 -151.325 -88.8144
-134.175 -180.819 -40.6656
-136.578 -100.529 -61.0755
134.533 55.7297 -196.287
71.3326 20.9234 -214.946
73.5733 89.3332 -232.381
176.127 82.4135 43.2667
187.933 163.337 -29.4513
181.535 195.329 -14.07
-145.892 230.967 7.87083
-133.96 224.973 20.4452
-119.453 245.555 11.1226
-149.359 139.145 61.9086
-146.266 202.056 27.6871
-163.184 184.831 24.5225
-79.2358 220.512 36.9307
-121.99 216.789 30.9685
-77.7452 150.416 99.216
-144.987 22.2187 224.988
-139.613 42.208 214.297
-147.594 26.6302 199.272
-111.295 71.5814 241.705
-126.691 58.4952 229.438
-117.415 51.5961 257.548
-135.947 118.623 122.766
-129.964 65.5786 195.462
-126.372 92.6765 144.6
-9.32526 118.585 255.896
-35.1959 110.41 258.985
-19.7124 99.8065 280.97
-56.6142 121.463 211.967
-46.83 117.225 235.878
-31.2036 132.645 211.964
-73.6717 79.76 277.302
-62.0377 99.7564 258.559
-84.6039 88.4054 253.899
-104.396 102.14 168.335
-97.9947 91.745 223.466
-86.8551 109.001 194.234
-80.7126 262.822 2.2963
-92.5393 273.025 -13.2879
-35.5189 230.921 50.5681
-61.3678 251.359 20.0744
-38.6016 303.073 -18.3475
-45.6666 282.47 0.463811
-25.3795 285.157 2.78225
17.3105 119.473 255.821
4.39208 130.4 235.059
30.9897 157.311 136.658
18.4792 138.88 213.903
42.8932 136.959 211.013
-7.18104 138.005 214.606
-15.7284 158.28 133.443
94.5843 285.385 -14.8882
84.4282 274.14 0.0818745
117.943 254.744 5.57251
32.4724 284.009 1.3965
60.5707 285.096 -0.0617853
49.5077 304.888 -19.7139
75.9717 220.632 47.0545
67.1026 258.48 19.8303
44.226 230.536 54.1858
-10.3007 230.379 62.0372
17.9229 229.324 63.8756
1.14277 261.327 31.4449
-77.1699 297.086 -36.4773
-122.033 269.87 -26.6673
-27.5344 317.459 -40.3622
-50.9288 313.977 -40.5452
-90.1309 297.421 -72.3178
-67.8904 314.064 -55.9248
-63.118 318.519 -73.2364
117.64 282.732 -35.589
89.2469 306.785 -38.9716
75.8583 322.96 -74.7851
84.1894 319.263 -55.9553
103.412 307.968 -73.8776
64.8615 316.368 -40.2043
34.4231 317.284 -41.2602
-20.6582 229.154 -180.135
2.3071 256.161 -163.725
26.1075 230.19 -181.281
-46.4948 305.072 -108.254
-24.7108 281.161 -134.503
-60.157 277.129 -128.234
71.5854 280.95 -130.035
30.4089 280.927 -134.528
55.4106 306.506 -108.3
2.56496 321.432 -54.5357
33.441 324.131 -77.2565
-27.2005 324.286 -77.24
-149.526 255.603 -32.9151
-154.788 242.079 -15.7006
-117.746 266.717 -86.3465
-134.753 264.502 -58.4182
-192.056 207.284 -32.4585
-170.419 235.542 -43.3429
-184.65 211.34 -56.7608
-36.6583 180.738 -200.078
-54.6055 212.699 -182.168
-112.588 165.601 -168.973
-84.995 188.575 -178.57
-97.4587 138.258 -201.559
-72.7039 237.095 -156.256
-90.7414 253.565 -123.065
-156.807 101.417 -95.3598
-158.082 119.003 -107.143
-152.848 71.1347 -132.367
-183.871 187.068 -71.6562
-174.423 173.816 -82.9608
-191.239 192.251 -48.6241
-135.945 101.947 -172.805
-152.467 133.192 -124.846
-139.535 143.773 -146.156
-138.606 230.553 -109.311
-146.024 191.58 -125.859
-170.683 204.833 -91.8604
-166.555 219.831 -3.33299
-192.071 196.874 -30.6719
-186.638 202.974 -15.2905
-174.633 195.945 9.07473
-176.793 178.949 17.346
-153.348 67.5825 -92.5075
-167.054 137.672 -50.1166
-187.543 128.9 -13.5133
-190.627 140.401 -18.1695
-173.221 60.5565 20.0445
-195.572 174.437 -33.2214
-192.152 184.858 -34.2783
-147.809 29.6329 172.613
-153.286 7.80741 188.872
-164.711 163.043 49.515
-137.316 81.4507 112.234
-162.768 1.66126 84.4688
-150.875 42.8814 107.397
-164 72.6164 16.885
-192.586 198.371 -29.1867
-183.039 170.001 -28.483
-186.755 185.86 2.72645
136.06 231.313 17.9041
148.425 236.658 6.25073
72.8694 156.067 114.585
116.32 216.627 33.002
156.712 202.159 15.1405
141.811 212.279 23.9011
123.251 143.981 73.9948
28.7171 100.025 281.835
46.0908 112.05 260.003
94.9941 91.681 259.727
73.1867 102.241 262.213
84.5455 82.7965 282.41
57.6344 121.283 236.604
64.3155 127.773 214.059
171.02 24.3005 197.442
157.08 41.3394 216.984
163.824 18.6497 228.627
134.133 87.3091 174.437
146.796 63.4428 202.178
146.11 75.2317 155.736
129.284 55.8966 263.982
139.044 60.2935 236.377
122.03 74.8176 249.267
92.4183 115.182 205.396
107.101 95.3251 231.647
116.047 101.668 190.095
-20.872 79.4089 303.005
3.38854 88.1653 300.278
-77.604 57.5698 294.795
-51.7784 68.9654 301.557
5.80033 30.6454 341.298
-21.3239 50.9356 324.509
-19.4443 20.7417 341.772
-149.374 -18.6796 231.099
-139.787 5.86672 248.657
-116.569 -44.5559 290.235
-130.093 -19.6903 271.098
-136.36 -75.5452 273.145
-124.754 25.0469 267.418
-107.436 39.2907 280.998
-1.46924 -120.205 320.028
-42.6816 -105.096 324.307
-49.1134 -160.697 321.521
-17.0078 -9.81446 352.734
-24.1174 -41.1361 345.521
6.69118 -17.5458 361.255
-101.636 -123.226 308.545
-72.3668 -89.2517 323.251
-94.5394 -71.2444 313.355
-83.9757 25.6903 307.761
-88.5889 -14.6978 314.166
-50.4597 7.37013 333.34
-154.175 -21.3473 176.285
-153.145 -29.8478 207.171
-168.323 -21.8368 74.3961
-164.577 -22.9676 115.634
-150.699 -115.598 201.761
-153.218 -63.9033 162.799
-152.407 -97.2581 149.467
-143.72 25.0452 -103.861
-145.672 -1.0658 -51.24
-165.085 -106.825 1.19961
-162.315 -75.7084 -6.56264
-156.782 -106.592 -23.4394
-161.739 -24.9097 14.3691
-167.631 -24.1196 36.3976
-132.842 -203.07 69.2216
-150.535 -182.321 37.4192
-142.691 -204.226 21.7774
-143.897 -152.713 108.037
-153.496 -158.186 60.413
-141.24 -155.657 167.929
-159.603 -157.245 -3.62935
-161.685 -158.393 22.0585
-165.031 -136.185 11.2212
-167.317 -60.9689 44.4321
-166.235 -108.888 20.7317
-162.929 -96.4132 60.8607
-146.093 56.3984 -150.622
-146.112 43.724 -129.88
-122.477 85.5693 -194.905
-135.798 70.2563 -175.399
-124.793 21.1924 -158.871
-131.224 43.1503 -169.739
-113.555 30.0717 -184.038
2.53539 149.384 -218.771
-38.5788 135.219 -224.309
-34.842 73.7479 -235.592
-36.427 99.5241 -235.9
5.28771 83.8243 -242.393
-73.6298 120.136 -223.525
-98.6884 106.077 -215.011
-53.8884 -53.2955 -139.312
-34.192 -11.1998 -194.041
2.93327 -15.601 -189.388
-85.0715 10.9638 -193.796
-61.6709 -1.53657 -194.778
-74.7057 -21.1543 -167.866
2.61468 26.15 -224.052
-35.3235 10.8512 -213.682
-36.5703 36.3054 -226.789
-100.299 71.1067 -215.071
-70.2745 53.7702 -226.067
-95.4956 39.0772 -207.716
[...]
POINT_DATA 642
SCALARS Mean_Curvature double 1
LOOKUP_TABLE default
0.0199057
0.0225795
0.0165587
0.0168705
-0.00721106
0.0177266
-0.0117707
0.00187969
0.0309694
0.0181491
0.00889252
0.0218272
0.150456
0.0123967
-0.00035266
0.00499537
-0.00576257
0.0187418
0.0131447
0.0134856
0.116516
-0.0233614
0.0145073
0.000591086
0.0100705
0.0143315
0.0110077
0.00726445
0.00176978
0.00639116
0.0111959
0.0111442
0.0092639
0.0113507
0.0133922
0.0170406
-0.00238731
0.0179584
0.0176586
0.00652502
0.00848398
-0.00139126
0.0215978
-0.0115427
0.00722446
0.0126822
0.0102428
0.00289257
0.00982221
0.00648649
0.0130789
0.0086042
0.0139064
0.0111184
-0.00440624
0.0190004
0.00799308
-0.0036997
0.039941
0.00172128
0.0261702
0.033154
0.0103015
-0.00135922
0.0102978
0.0128071
0.0179993
0.00814474
0.00208158
0.0030605
0.0201537
0.0131975
0.0518862
-0.0159372
0.241018
-0.0308468
-0.00105554
-0.000698638
0.0242403
0.0134133
0.00673482
0.00774761
0.00500018
0.0113716
0.00969098
0.0138174
0.00233414
0.0125894
0.0076278
0.00461785
0.0128435
0.00539009
5.84731e-05
-0.00162439
0.0091987
-0.0368057
0.00726091
0.00988357
0.0186071
0.0216888
0.00802302
0.0127737
-0.0179517
0.0144631
0.00881216
0.00575466
0.00570245
0.025518
0.0181148
0.0200174
0.0103563
-0.0133772
-0.0364859
0.0233061
0.00964226
0.00425329
0.0198209
0.00277582
0.0192278
0.0152349
0.00969563
0.00694481
0.00921155
0.0187877
-0.00958893
0.0128711
0.00619982
0.0154276
0.0138559
0.0201178
0.0196502
0.0160731
0.0102467
-0.00557998
0.011137
0.0176677
0.0272446
0.00214808
0.0130952
0.00298858
0.0163463
0.0139173
0.00171386
-0.012476
-0.00586787
-0.000405439
0.00962248
0.00796149
0.00838292
0.00994483
0.0123479
0.0161489
0.0145611
0.00885513
0.0121791
0.0295372
0.0167321
0.0133785
0.0107496
-0.0433941
0.00663812
0.00265567
0.0148764
0.0132666
0.0188279
-0.0476993
0.00637505
-0.0164743
-0.00577457
0.00843344
-0.00307447
0.0131363
0.0118715
0.00847206
0.0130151
0.01363
0.0128432
0.0448004
0.0237761
-0.080835
0.0104988
0.0097155
0.00803054
0.00475223
0.00800202
0.00809535
0.0125207
0.0117734
0.0119858
0.000521104
0.00890395
0.00802187
-0.00148934
0.00421551
0.00114004
-0.00109746
0.0185998
0.00712669
0.00825643
0.00930373
0.0101994
6.81841e-05
0.00828167
0.0140461
0.0115833
0.00415943
0.0112116
0.00229209
0.0105739
8.77864e-05
0.0127343
0.0138423
-0.00297823
0.00122544
0.00391913
0.0105989
0.00860805
0.00691356
0.00999014
0.018563
0.0175973
0.0130731
0.0206821
0.0267765
0.0303511
-0.00282633
0.0131351
0.0291922
0.0355641
0.0282684
0.0137488
0.0105297
0.00906455
0.0103777
0.00964538
0.0193778
0.00613222
0.0102806
0.0119618
0.00231393
0.0138639
0.0108907
0.0201052
0.0235439
0.0277331
0.0116767
0.00782008
0.0151925
0.0478098
0.0200367
0.0191224
0.00171759
0.012509
0.00401941
0.00590934
0.0115606
0.010459
-0.001013
-0.00130391
0.00744985
0.0158649
0.0517167
-0.00271404
-0.0677263
0.0098055
0.00397411
0.00395455
0.0115563
0.00981765
0.0184862
0.00997757
0.138406
0.0171101
0.0158328
-0.0836195
0.00412499
-0.0130027
0.178933
0.00392167
-0.0542993
0.0127193
-0.131503
0.002737
0.00981892
0.00605208
-0.0124702
0.00360295
0.00270099
-0.0164482
-0.110539
-0.0377274
0.0815801
0.0197669
0.0188899
0.000175172
0.00206763
0.00573058
0.0132799
-0.00148901
0.00571854
0.00796873
0.0125428
0.0122633
0.0146344
0.0101047
0.00644902
0.0151821
0.00800048
0.00924997
0.00596809
0.0070984
-0.000491696
0.0152394
0.0102991
0.0133118
0.00610806
0.0082233
0.0057732
0.00844364
0.0170879
0.0120519
0.0123555
0.0118502
0.00867407
0.0121072
0.0112188
0.0110757
0.00271428
0.00871824
0.0133826
0.0132605
0.0130866
-0.00541052
-0.000473966
0.00673083
0.0186919
0.00780876
0.0369523
0.00874826
0.010064
0.00942586
0.0106011
0.00908206
0.0104078
0.000487405
0.00527905
0.00920994
0.00903165
0.00138527
-0.0027009
5.9083e-05
0.00751732
-0.00216851
0.0134028
0.00678777
0.00444731
-0.00359514
0.0211696
0.00708788
0.00696954
0.0167282
-0.0194289
0.0564154
0.0316716
0.0181676
0.0177755
0.0159768
0.00364415
0.00667201
0.000742816
0.021091
0.00826205
0.0141908
0.0147225
0.00775022
0.0129334
0.0129559
0.00167294
0.0083622
0.00908146
0.0132844
0.0226176
0.0165904
0.0189959
-0.00972147
0.0099096
0.00116331
0.0131781
0.0103341
0.0409378
0.00950328
0.0141113
0.0114575
0.01805
0.0167397
0.0171947
0.00953945
0.00208773
0.00116667
0.00968381
0.0110412
0.00955402
0.00518494
0.0151965
0.021326
0.0231908
0.0110463
0.0279957
0.0106697
0.00643435
0.024739
0.0129453
0.0312324
0.00109512
0.00560203
0.010401
0.0184237
0.0131843
0.0183638
0.0107423
0.0185112
0.00528437
0.00941473
0.00110581
0.00635051
0.0174676
0.00755737
0.0173502
0.0170693
0.0134207
0.0204748
0.0139954
0.00915462
0.0090422
0.0134772
0.0161166
0.00523948
0.00110352
0.00632625
0.00853099
0.0229636
0.022841
0.00458368
0.0162489
0.0195679
0.0196155
0.00686069
0.0145563
0.0118279
0.0197504
0.0177265
0.0125849
0.0161353
0.0146379
0.0176498
0.00953873
0.00692933
0.000274645
-0.0117232
0.0268513
-0.00709564
0.0127883
0.0183038
0.0189546
0.0151152
0.0118242
0.0123011
0.0158161
0.00678398
-0.00494809
0.00437537
0.00822727
0.0124532
0.013072
0.0196786
0.0305884
0.0330507
-0.0107247
0.0207309
0.0173723
0.0117832
0.00591569
0.019387
0.02148
0.013096
0.0172725
0.019724
0.0185466
0.0221713
0.0179166
0.013786
0.0100256
-0.00097938
-0.00921341
0.00295086
0.0107979
0.0127466
0.00696621
0.0134347
0.0153201
0.0119524
0.000725886
0.0157428
0.0129817
0.0201395
0.0181353
0.0158677
0.0176097
0.0104777
0.0232534
0.0145059
-0.00820902
-0.0698325
-0.0107907
0.0809255
0.0293691
0.0262461
0.0186302
0.0114769
0.0419777
0.0171971
0.0104048
-0.00149266
0.00546685
0.00661334
-0.0285231
-0.0109199
0.0171157
0.00554106
0.0129827
0.0162159
0.0170237
0.00050288
0.0404918
-0.011273
0.00350846
0.000690566
0.00319941
0.0012724
0.0080086
0.00639292
0.0147487
0.000787953
0.0159522
0.00257949
1.36951e-05
0.000850733
-0.00128098
0.0234868
0.0273255
0.00302446
-0.00032401
-0.00289404
0.00527195
0.00421308
0.0144248
0.0243774
0.00840798
0.0128684
0.0102714
0.00986322
0.00894123
0.00556917
0.0130704
0.00819548
0.0131144
0.0130166
0.0105739
0.0089322
0.0149581
-0.00162938
0.0125088
0.0148904
0.0121861
0.0174908
0.0203551
0.0105229
0.0171805
0.0164112
0.0190061
0.0131264
0.00400408
0.00225723
0.0157378
0.0115313
0.0184896
0.0204704
0.0183867
-0.078625
0.0139803
0.0301793
0.12049
-0.0174102
0.0212457
0.0134761
0.0136777
0.0174814
0.0144337
-0.0891507
-0.0159597
0.0939973
-0.0308187
0.0124141
0.0138976
0.0145801
0.00631555
0.0134253
0.0127687
0.0120318
0.0196261
0.0159791
0.00886517
0.00956086
0.0127727
0.00963562
0.0128927
0.00752812
0.016777
0.0121339
0.0176826
0.0168421
0.0155748
0.0123613
0.0168248
0.00697797
0.0286419
0.00509883
0.00217144
-0.00119983
0.00315758
0.0312061
0.0251895
-0.00351523
-0.0225286
0.0244871
0.00375044
0.0190522
0.0309533
0.0250029
-0.117332
0.0400683
-0.00402951
SCALARS CoVolArea double 1
LOOKUP_TABLE default
676.849
749.486
981.772
1051.67
1669.05
595.542
4174.31
1582.93
371.779
653.74
643.749
563.581
666.16
803.035
3440.15
2328.2
1348.03
1317.5
1376.93
1317.76
272.103
1277.63
814.183
2278.69
1452.73
699.029
709.692
1487.73
1272.12
2347.29
562.877
1470.32
1485.64
1628.59
1439
1271.99
3422.28
852.942
923.252
2436.66
884.872
1996.54
498.573
3146.07
878.558
691.38
1063.37
1478.48
646.669
863.229
827.26
1124.42
799.951
694.241
2268.07
649.808
1250.54
1099.91
662.092
979.717
762.462
766.956
1470.23
1934.56
1583.77
1400.65
596.733
1541.16
2018.11
1201.04
1101.98
1080.98
200.977
4440.91
220.539
4175.47
1697.79
2969.62
370.063
871.889
802.516
951.285
945.602
859.834
1164.77
952.114
1175.52
1279.95
2199
1759.63
1360.34
2291.3
1384.4
1980.6
993.002
2388.95
1353.55
725.334
805.83
774.234
1462
1105.56
982.248
940.296
1073.01
1945.82
1647.07
729.46
1354.15
959.069
1450.05
959.391
2291.75
982.926
1517.37
1391.38
892.782
1174.32
1497.81
1465.2
1581.92
2184.5
1680.71
1478.38
2015.2
1471.99
1905.28
1411.54
1348.78
882.641
813.462
1189.19
1457.25
1632.75
1208.33
876.38
656.29
1037.6
1384.08
1991.11
1581.85
943.361
1708.16
3443.88
1038.1
2702.34
1211.39
1636.91
1360.08
1149.25
950.815
1291.35
756.938
1442.35
907.241
1316.76
895.159
1063.21
1141.4
2052.12
1046.04
423.552
591.768
476.643
682.892
2061.74
1269.16
669.362
2896.48
2028.9
4172.26
695.46
659.538
563.593
762.806
661.844
680.91
1668.43
1032.12
1462.95
684.034
757.861
765.317
2244.21
706.55
1409.38
751.165
704.405
778.789
2072.61
1047.09
2314.2
978.804
1007.76
2324.56
1267.74
737.952
808.748
1234.43
746.394
622.279
2068.18
1297.13
1173.37
1279.58
2183.41
855.773
818.581
739.008
1421.08
760.205
895.824
2457.32
1167.32
1989.95
1977.25
2153.69
1606.28
909.849
942.111
882.209
565.826
1078.81
643.858
915.871
961.526
714.714
1002.28
563.109
910.964
593.356
960.805
1557.59
1678.61
1610.54
1423.34
1686.82
1368.63
1423.68
1800.7
1567.36
1060.81
1564.42
1463.98
822.221
683.084
1693.93
1197.75
453.464
892.502
895.979
1821.23
1540.78
1909.2
1666.26
1304.36
1608.69
1876.87
1300.48
1274.04
803.96
547.422
799.104
325.049
1172.11
1342.67
1714.42
1920.22
1891.37
1269.76
634.067
131.404
449.248
469.267
285.79
2642.76
2252.13
617.289
1343.29
1886.47
634.188
92.7271
1554.63
863.456
1139.7
2745.38
2134.25
4045.93
4283.78
260.529
2168.47
750.895
584.262
580.879
3191.44
2017.03
1038.7
1311.5
2438.82
861.622
830.35
748.048
698.248
738.48
692.354
1697.53
629.135
797.853
857.947
1900.93
963.247
1985.03
762.507
739.249
753.031
2228.7
985.893
2186.5
923.75
806.114
1000.92
951.184
924.92
1023.42
1020
1038.01
1021.28
1617.51
1251.52
1215.7
879.482
932.037
2967.3
2224.96
1705.66
1030.32
1605.85
762.233
1338.43
1810.39
1801.94
1362.79
1813.49
1484.55
1665.34
998.374
1480.04
1678.71
1342.31
2201.95
3157.5
1435.48
3932.67
701.36
1888.14
1162.01
3091.58
1432.43
2090.09
1331.51
868.501
2641.56
1006.45
957.488
663.301
729.578
590.579
1580.2
1008.63
2973.77
645.7
610.576
921.141
763.09
1486.77
676.524
820.792
2033.05
1688.13
1215.75
1198.88
986.076
1207.1
1038.45
2982.98
1452.56
2977.04
902.844
959.829
1054.01
1209.99
993.739
1248.26
1065.95
1187.89
975.093
1633.05
1888.33
1761.83
1596.19
1411.41
1643.33
1907.47
834.013
962.819
900.267
986.602
610.605
1091.12
1576.24
576.689
1187.95
575.438
1913.41
1516.28
1240.67
651.188
1249.59
853.238
1958.35
1397.89
2032.26
2097.45
2284.27
1706.26
797.747
1409.6
1297.17
1085.03
1029.9
1312.16
1152.85
1148.1
986.862
1216.05
1034.63
1315.27
1102.28
789.939
703.857
1457.81
1139.54
1915.86
1560.02
1284.57
1420.11
1596.46
1196.86
1398.25
1121.94
1461.96
1607.58
2003.74
1359.83
1182.47
1596.18
2521.2
2644.15
4680.05
1453.54
1920.8
1532.59
1891.26
1330.81
1934.62
1646.7
1364.97
1862.49
1589.69
4236.6
2112.36
2107.38
1087.15
1415.17
1089.38
1505.72
1459.06
3176.36
942.08
910.206
1744.46
1116.34
852.356
901.061
1093.09
827.15
880.041
959.252
807.665
802.432
956.768
1650.19
3018.22
1965.55
2872.85
1286.94
1468.33
909.503
794.564
1359.25
1133.27
1846.22
1678.38
1784.88
846.209
932.692
945.049
882.538
675.263
721.598
785.803
2978.16
1265.99
3538.26
929.798
1147.03
841.816
845.941
984.709
955.74
656.868
1114.38
1380.58
1561.52
1743.38
1557.42
4166.35
990.596
2585.19
985.506
1161.31
777.183
811.359
1325.14
3003.43
1445.06
2873.92
1555.52
2887.72
3389.07
1913.54
774.406
1486.14
685.806
3132.95
2154.06
1609.41
1973.98
1412.11
984.232
1518.47
3166.3
2630.51
2089.01
2109.64
1593.71
819.974
1175.21
1076.05
1039.95
1337.96
1736.7
995.794
947.635
1027.17
969.89
1051.19
1811.94
1396.81
1299.85
2212.64
1196.37
1104.71
1399.84
773.389
1166.99
1242.03
1163.32
1289.83
1363.49
1010.35
675.583
816.039
954.367
1137.16
1272.41
1134.13
856.363
1101.72
872.895
797.203
907.804
3504.38
766.065
832.021
757.478
807.387
923.888
844.749
3881.23
1247.62
991.493
881.789
1047.82
983.475
2567.18
706.9
917.304
778.146
780.864
1035.96
1445.62
1243.9
1057.57
1037.01
992.835
1724.77
1225.82
1318.26
1116.09
1078.36
1137.04
1271.17
1214.83
844.404
1838.57
1833.89
2303.9
3090.54
1410.12
379.734
724.047
2825.59
3020.1
496.576
1382.36
353.929
410.214
416.362
844.939
362.477
1292.82
SCALARS SignedDistance double 1
LOOKUP_TABLE default
60.1941
61.1066
48.4433
44.3346
47.6148
59.305
65.8203
43.8631
66.2123
58.1404
67.0704
65.2613
122.153
57.4789
72.2102
72.8622
59.7959
35.7435
41.0178
47.2791
71.8559
72.7286
55.1432
80.1649
46.1959
45.1224
60.2822
63.8903
47.3587
59.526
60.0096
43.5542
59.5579
44.4555
36.9722
39.6155
55.038
47.8054
48.8837
59.0705
55.172
64.7888
76.3994
89.3496
71.5917
60.4185
67.8313
70.0099
63.5623
65.6364
57.4276
66.1083
61.1952
63.0397
74.1443
59.485
65.1246
68.5779
51.1134
56.3363
52.0589
51.3207
39.7311
44.0274
38.2022
42.7954
56.9664
43.0145
47.0438
66.1048
64.1989
59.1008
83.5212
84.1922
85.7372
100.933
66.4787
73.0189
68.9351
56.5279
62.2556
64.8166
63.4355
58.1555
49.4603
50.9168
56.8075
50.8776
44.9017
46.8819
41.2767
62.8037
62.8732
69.6563
64.6784
70.3396
62.728
54.0574
51.503
66.8093
41.6963
44.1708
82.8328
51.6479
54.8388
42.3259
42.6752
55.8784
42.2099
52.7544
59.7785
71.2328
70.1074
53.8771
59.0268
51.6304
56.2373
58.7485
31.9448
36.1575
41.9827
53.2957
44.1758
30.9854
48.9398
43.6095
53.5508
63.2109
42.7131
38.8999
42.1965
42.4663
62.5728
61.778
62.7272
49.3718
55.324
81.3323
61.2358
66.5687
59.6032
61.5731
57.8106
75.2811
65.3133
61.4451
62.7828
43.8395
49.0869
48.8206
54.663
38.655
60.5649
60.5806
51.5202
66.6028
48.1227
50.6011
43.5696
80.5131
70.7445
66.1647
65.105
70.4213
66.2351
110.237
81.4498
90.0219
73.7912
78.5628
74.8582
62.9305
65.9248
66.9069
62.5011
64.1044
58.2559
95.4699
69.894
77.7322
61.1823
61.9476
58.2363
67.4348
64.4352
66.4476
57.379
62.0524
61.9358
73.9568
67.0588
72.1819
67.3915
64.1972
69.4301
69.104
59.543
64.6343
63.2265
61.4333
64.1084
74.1864
69.0304
67.1965
68.1277
73.6959
62.8341
65.5795
66.2189
61.9246
63.7716
59.0623
69.8828
66.4572
68.7416
69.9225
69.9449
62.6385
57.5543
54.3381
53.2416
52.7188
49.018
51.0556
43.4509
57.3523
53.2292
40.9403
49.2807
43.0737
52.6339
58.2323
41.659
38.3438
41.1064
36.9299
40.8721
42.0146
40.8361
41.6118
38.1078
58.8677
49.6465
42.3528
51.2701
56.1639
43.6595
45.0649
66.5652
49.2801
53.1083
43.9735
41.682
47.9478
43.296
43.3929
41.4806
45.3036
67.8885
70.1198
64.4614
64.1722
63.2638
66.7967
52.0529
68.8626
60.6425
41.719
55.8152
52.9843
63.8856
71.5195
71.9431
81.8492
93.6441
71.1438
75.8025
107.702
100.834
92.6645
81.6499
73.7248
68.2298
66.0127
115.866
74.2668
69.0519
68.0236
91.1582
70.8019
74.8823
89.4184
67.7371
63.0451
70.4131
74.4337
71.7801
73.5432
77.9621
57.5665
60.1514
59.9162
60.311
55.3715
61.89
63.9423
62.1263
60.8015
57.8614
68.4249
63.411
67.629
55.9487
61.2701
60.0149
65.7677
63.2537
67.607
54.8016
55.0079
52.9888
52.7754
48.229
50.9242
47.21
60.1725
58.4125
50.8348
53.8799
53.7933
55.7471
53.9269
46.1423
46.0544
43.3629
45.1094
44.8908
43.8638
42.6496
45.0393
46.8758
49.7601
47.452
48.088
65.2444
64.1821
66.4301
66.7
61.6677
64.1367
63.3947
76.7471
75.9532
61.8864
64.9294
61.3839
68.7498
68.566
56.6579
56.2094
51.9511
72.1751
62.9788
68.4518
56.5646
58.3047
61.8428
64.2274
63.1124
61.345
62.4368
67.5073
48.7276
53.5238
60.2368
56.8493
54.2359
42.9891
41.8655
46.6405
43.3663
44.9878
40.8418
42.9292
84.0841
60.2934
60.8418
55.5884
58.7677
69.2223
49.2845
52.1039
46.7112
44.6362
45.6134
49.7152
41.1683
43.6944
43.5817
39.5392
41.4353
41.0704
44.5463
55.0053
48.5833
53.9324
45.913
59.7035
49.6632
43.8092
60.46
61.5552
65.4195
52.625
59.2988
46.2461
64.109
66.0105
57.0663
39.7108
48.7011
51.2353
52.4309
72.8476
70.9547
57.0241
57.7221
63.953
46.0144
53.0824
44.083
55.1334
56.672
60.0138
46.4262
53.5117
49.2325
57.8113
57.4889
57.0825
43.7362
41.4737
43.1778
32.4426
31.0673
31.7183
41.5231
39.4996
40.077
53.4881
43.3356
41.703
72.9207
42.7478
47.4306
53.3509
45.733
74.5894
64.2396
38.7076
41.8153
35.5312
36.0203
31.5327
41.8842
37.0382
44.8334
74.4813
74.6544
73.6266
76.4568
45.2877
44.4278
56.2426
46.6546
57.0126
51.4165
55.7374
42.662
40.3519
51.3596
45.1456
42.1466
41.276
44.4712
44.7268
41.9167
43.6175
40.648
43.4415
45.3526
45.367
75.1161
74.1021
74.3652
51.4018
63.2878
54.288
54.1731
58.5771
50.4914
53.1373
46.386
54.5355
43.2052
46.8343
45.9191
42.8093
56.1262
49.8244
54.0457
82.5162
75.8989
77.2576
83.6461
69.4869
64.5402
53.1675
75.0921
82.2607
64.0879
56.5614
64.6066
59.0167
57.4136
88.6321
71.8142
53.3499
57.8801
55.7657
53.5336
53.3148
56.4615
57.5424
66.9065
67.5227
80.1925
64.7066
62.838
66.0702
62.3103
65.3054
60.7342
61.5763
58.3963
59.6557
64.2219
62.6249
65.3277
69.1149
65.6326
62.5527
44.4702
43.0186
45.3404
42.2358
44.9034
54.1395
50.6235
52.5357
49.9085
45.7228
54.2247
46.5691
50.7851
51.2352
50.506
45.976
47.8329
45.6577
74.017
46.404
54.9835
61.9036
60.8862
39.2434
44.7203
40.4632
33.641
36.247
62.6689
61.0386
61.4079
59.6278
52.6261
49.3037
53.0576
59.6757
77.3903
52.4852
64.6523
88.2735
80.0107
48.3707
56.4983
52.6068
46.5472
48.071
85.0774
75.6371
94.7627
72.3644
61.117
52.7614
58.4888
59.7822
55.6128
51.9877
52.6195
49.6726
44.0948
59.901
47.0794
52.3947
57.7651
54.5554
42.0301
40.8422
41.9827
41.5223
46.6034
47.9273
45.3413
42.8861
63.5816
67.9094
63.6491
65.5357
78.3732
70.1945
67.0225
68.2697
72.4765
84.0875
62.5264
69.8073
68.0152
64.8477
65.0451
87.094
71.3181
77.6233
