# vtk DataFile Version 4.2
vtk output
ASCII
DATASET POLYDATA
POINTS 642 double
-124.902 240.969 -11.914
122.953 250.878 -15.7831
-117.65 -212.527 39.8745
136.003 -220.167 40.2422
1.27783 -176.1 303.018
3.61662 93.4136 268.155
3.13258 -67.1575 -100.426
2.8592 193.87 -183.858
159.993 65.6101 -118.156
160.064 -0.29229 205.796
-134.173 63.6636 -115.928
-135.231 4.48427 205.314
-154.894 154.284 45.9225
-87.7349 57.0671 261.099
-30.0124 141.245 114.73
42.0584 142.055 120.79
0.928477 288.395 -32.7911
85.3024 293.953 -97.4797
-71.4336 286.978 -94.5838
-110.573 116.366 -183.138
-179.378 191.175 -39.6102
-144.056 22.6052 29.2379
99.3915 61.432 267.512
123.493 123.636 54.6013
-113.423 -99.6541 283.785
7.64125 -4.47416 343.669
-144.455 -131.232 -7.76367
-131.196 -138.25 191.705
5.16831 63.7552 -222.54
-88.8899 11.3707 -163.442
175.491 191.753 -51.0303
122.829 118.569 -186.48
156.563 -139.847 197.332
130.495 -100.633 287.323
96.1154 -234.452 239.98
-85.7926 -230.695 238.9
0.0868262 -232.012 37.3426
-80.1362 -203.859 -52.2051
94.3063 -205.646 -53.4888
100.513 8.89692 -165.852
161.695 -141.707 -10.1007
164.667 2.83315 58.4118
-147.913 200.184 5.36163
-108.181 128.439 61.5228
-104.675 226.736 5.60972
-119.124 30.7178 236.985
-105.171 64.5065 206.234
-120.953 46.501 178.478
-17.2549 111.713 226.883
-62.5926 90.4322 229.28
-43.6103 79.4117 272.242
-27.748 250.47 11.5457
-51.4684 284.273 -27.2757
29.5495 114.68 226.053
6.15562 139.693 126.212
67.2731 288.604 -27.8719
40.85 250.367 12.27
99.0391 231.746 3.05867
-43.9584 311.263 -58.3472
-93.835 271.763 -52.2976
101.499 291.086 -58.5387
56.1371 312.172 -58.6472
-39.4636 246.642 -149.999
2.07073 293.03 -99.3393
47.9181 248.641 -152.043
-149.822 231.033 -69.8455
-163.931 218.592 -29.2493
-65.9673 154.036 -194.108
-99.38 206.537 -136.593
-162.067 174.582 -60.3123
-153.404 176.044 -94.8103
-133.546 84.7157 -146.053
-178.99 188.334 -9.9144
-130.606 85.923 -15.6761
-179.12 174.251 -33.6328
-138.005 167.931 46.15
-137.484 -0.808458 139.09
90.5699 138.345 82.8448
145.195 213.452 -2.04429
56.4291 80.6053 275.304
72.7823 95.3224 233.285
146.462 36.5755 182.782
117.315 66.2576 215.709
134.329 31.5476 242.292
-45.4156 35.6376 308.469
4.8963 54.0301 310.641
-127.787 -51.4416 247.056
-102.377 4.73686 280.941
4.203 -48.0408 337.277
-50.0958 -33.6985 321.489
-73.986 -143.188 308.569
-148.834 -51.4371 97.5884
-134.52 -72.9315 209.316
-124.437 -52.5342 -48.8733
-148.705 -73.0968 17.1678
-140.279 -145.045 117.24
-146.802 -136.115 30.3678
-137.827 -176.957 9.14156
-110.439 59.0887 -184.286
-123.379 37.4214 -137.018
4.16468 106.062 -226.083
-67.0719 89.2958 -217.324
-65.3983 -32.1606 -147.632
-61.1732 29.3265 -202.062
2.44195 12.2594 -197.531
108.721 213.505 -143.991
73.458 157.231 -195.127
165.033 225.819 -29.9412
154.802 239.952 -76.4786
156.974 82.2407 -150.058
162.319 171.449 -104.536
162.704 136.083 -70.9321
158.276 -150.57 115.056
146.28 -190.82 215.827
111.524 -219.831 179.017
149.245 -51.4722 251.246
158.878 -128.676 242.895
159.938 -77.7599 208.832
62.6552 -214.602 296.958
121.867 -181.894 284.769
82.6763 -148.239 308.907
60.0385 -238.838 194.633
92.0394 -238.272 40.3711
-55.4248 -212.941 294.576
1.64918 -233.085 239.373
-78.5477 -237.158 41.2245
-54.3232 -237.572 191.907
-96.7327 -218.498 174.125
65.2752 -237.376 -13.9467
122.653 -227.748 -13.9205
-106.869 -221.553 -11.5566
-58.5163 -237.228 -13.7157
63.0536 -165.057 -75.304
0.589309 -199.469 -50.7956
-55.1246 -163.796 -75.8992
142.26 -183.824 -36.9365
158.635 -188.626 6.82795
78.2919 -36.7261 -148.382
97.5223 -153.053 -75.7713
147.204 -41.9127 -50.3675
137.794 -105.636 -52.1361
144.591 38.013 -139.128
164.802 -141.934 30.9179
143.793 60.952 -44.8071
165.079 -86.1695 20.4325
165.098 -54.3642 101.982
161.518 4.77357 152.533
56.7324 -27.1878 331.78
114.357 3.39937 287.778
55.3433 34.5837 314.552
-125.988 -182.751 215.988
-111.149 -177.278 279.289
-133.206 -131.28 240.034
-84.8955 -147.288 -76.0362
-123.405 -175.986 -33.1159
-124.986 -97.0295 -48.5686
125.973 59.4766 -187.343
67.9358 27.9148 -203.731
70.0612 89.0295 -220.942
165.166 81.6905 47.8903
170.754 168.855 -31.1582
166.723 193.593 -23.8094
-137.766 221.546 -2.34449
-127.817 216.015 7.00195
-115.145 234.424 -1.16528
-149.168 138.521 61.2645
-138.359 193.535 12.07
-155.623 175.388 13.2032
-74.1521 208.4 21.9273
-116.184 206.463 14.6727
-68.8145 136.233 88.9022
-129.152 17.3814 220.744
-123.506 34.6846 211.332
-130.29 20.5295 197.936
-99.6986 60.8411 235.968
-112.67 49.2992 224.863
-105.698 43.854 250.492
-134.102 105.014 119.413
-113.967 57.1765 191
-127.967 83.7174 139.417
-7.08538 104.009 247.97
-30.5267 96.0835 251.02
-16.5858 87.2754 271.6
-48.5604 106 206.686
-40.2834 102.075 229.602
-25.6597 116.442 206.715
-66.1969 69.3157 268.604
-55.0689 86.1991 251.321
-75.539 75.9866 247.25
-91.8744 87.848 161.514
-86.9576 77.9271 218.734
-75.654 93.6496 188.981
-76.1591 250.443 -10.6355
-87.5847 260.325 -24.1752
-29.1342 218.79 37.4885
-55.7458 239.737 6.175
-37.0008 290.735 -28.3125
-41.0745 270.896 -12.2234
-24.1908 272.274 -8.69489
16.2142 104.852 247.538
5.10569 114.534 227.973
30.3077 139.089 127.453
17.8128 121.202 208.448
39.0467 120.273 205.728
-4.96817 120.856 209.093
-12.9778 140.703 123.809
88.2028 273.691 -25.3138
79.3633 263.09 -13.23
113.68 243.942 -8.10811
32.3143 271.345 -9.76113
57.6733 273.407 -12.8429
49.395 292.572 -29.5205
69.5525 208.478 33.9178
61.6416 247.326 6.37897
38.9154 218.081 41.2315
-7.38596 217.281 48.6515
16.171 215.93 50.4812
1.44501 248.816 19.7932
-70.1088 285.572 -43.3894
-116.146 258.087 -31.5191
-27.6183 305.096 -47.5958
-46.8756 302.69 -47.9805
-82.6316 288.188 -71.0086
-60.9912 303.297 -59.9372
-58.3992 308.766 -71.4856
110.158 271.003 -43.1917
83.2476 296.294 -46.1717
73.1928 313.175 -72.7975
79.2263 308.047 -59.7074
96.7781 299.691 -72.1205
62.7863 304.461 -47.5793
35.107 304.44 -48.9469
-19.3216 223.488 -170.31
2.59876 249.3 -155.819
25.4139 224.687 -171.664
-44.6145 297.4 -102.231
-23.8066 272.843 -126.804
-55.5731 269.796 -120.28
68.283 273.517 -121.875
30.183 272.699 -127.151
54.7318 298.62 -102.166
2.48135 306.843 -58.2594
33.8562 312.914 -74.5489
-26.9965 313.891 -74.7642
-141.486 245.145 -35.6073
-145.934 232.345 -22.2375
-111.373 259.385 -81.5049
-127.629 254.992 -56.9842
-179.339 201.644 -33.9243
-160.977 227.181 -42.9922
-173.812 206.709 -53.1395
-35.158 175.493 -189.172
-51.2262 207.395 -172.777
-104.082 160.761 -160.786
-78.83 183.309 -170.009
-91.1626 133.583 -193.135
-67.2953 231.016 -148.582
-84.0692 246.469 -115.271
-138.683 104.002 -93.9545
-140.506 120.853 -103.256
-135.574 73.3645 -130.04
-169.358 187.859 -64.7677
-158.949 179.658 -78.2612
-184.172 189.593 -46.5161
-123.728 100.095 -166.032
-136.378 133.131 -118.198
-126.866 141.078 -138.15
-132.044 224.692 -102.58
-136.605 187.938 -116.931
-160.07 201.201 -85.1253
-156.95 211.82 -11.0654
-185.124 193.417 -29.1721
-175.315 196.209 -21.3957
-164.193 187.692 -1.21488
-168.451 175.921 11.3835
-134.625 70.4698 -92.4492
-150.141 145.055 -45.3596
-171.274 131.544 -15.9638
-173.724 143.64 -22.2613
-154.088 57.4887 14.5415
-179.475 177.514 -32.6793
-180.496 183.929 -30.3736
-129.933 24.1585 171.391
-135.399 5.0172 188.349
-156.832 158.158 41.4578
-119.233 80.5022 108.987
-144.304 -1.73562 82.345
-133.041 38.9227 104.001
-155.393 68.5888 7.30285
-189.118 194.946 -28.149
-176.991 170.793 -40.9216
-176.968 186.319 -5.43555
129.921 222.699 3.69668
140.427 228.083 -4.62488
64.8519 141.395 105.424
109.806 205.09 17.5439
143.828 197.941 1.52129
131.833 205.146 8.3622
109.581 133.912 63.377
26.6587 87.5732 272.353
42.795 98.0884 251.714
86.6649 79.2386 253.15
67.2713 88.6736 254.717
78.2537 72.462 273.84
52.3089 106.683 229.865
57.5763 112.845 208.768
155.668 17.7011 194.979
143.082 33.4082 213.038
149.903 13.3317 223.459
119.806 76.0208 170.536
133.005 53.3275 199.052
130.554 65.645 152.423
118.242 48.2887 257.127
125.968 50.8442 231.762
111.043 64.0531 243.91
82.9615 100.911 200.406
96.7502 82.2168 226.763
103.91 88.787 185.517
-17.8391 69.4362 292.313
3.7365 77.4415 289.912
-70.2579 50.1658 284.836
-46.8656 60.4287 291.254
6.41292 24.308 329.713
-18.2198 43.471 313.101
-16.049 15.6837 330.497
-133.656 -19.7259 226.805
-125.469 3.16336 242.269
-106.543 -45.791 280.811
-117.709 -21.1355 263.263
-123.924 -76.9125 265.57
-112.5 20.7218 259.71
-97.5706 33.3514 271.983
-1.53497 -117.826 307.598
-41.8874 -102.778 311.893
-48.995 -159.857 309.588
-12.6213 -11.2873 341.213
-20.4111 -38.9143 334.282
7.63541 -17.6586 349.469
-95.3254 -122.982 298.75
-68.5603 -88.263 311.666
-87.5286 -71.6704 302.859
-76.49 21.4177 297.244
-80.9774 -16.0309 303.66
-44.5236 4.52838 321.935
-136.234 -21.511 174.97
-135.472 -29.8226 206.101
-150.253 -23.3847 73.5614
-146.856 -24.6287 113.171
-133.698 -114.678 201.771
-135.632 -62.9946 161.02
-135.102 -95.548 148.186
-124.984 29.3722 -101.633
-126.931 -0.539059 -48.5055
-148.299 -106.726 4.36713
-145.355 -76.5998 -1.77041
-141.109 -106.601 -17.4184
-143.665 -25.3756 19.2965
-149.454 -24.5479 38.0854
-120.198 -196.12 66.3889
-136.455 -176.66 35.1517
-130.201 -197.363 21.0334
-133.065 -150.538 106.846
-137.356 -154.204 57.7876
-123.894 -151.294 167.273
-145.012 -153.855 -0.36874
-146.39 -154.529 21.0951
-148.112 -134.788 12.334
-149.6 -60.3187 44.3069
-148.832 -108.278 20.4699
-146.282 -94.5911 59.044
-130.722 60.3892 -145.64
-128.758 49.0436 -127.498
-112.372 85.369 -186.542
-123.344 71.812 -168.219
-113.296 29.5714 -152.011
-118.972 48.7094 -162.766
-103.782 37.367 -175.912
2.77104 144.264 -208.23
-37.1951 130.615 -213.959
-33.0246 75.5234 -223.085
-34.6062 98.007 -224.471
5.9317 84.6213 -230.242
-70.0659 116.828 -213.565
-92.2419 104.147 -205.562
-59.2717 -41.4691 -125.428
-32.8811 0.22988 -183.332
3.07913 -3.11218 -178.884
-78.1043 19.8255 -184.298
-57.0463 8.309 -183.969
-64.8299 -12.9828 -158.037
2.76678 32.0143 -212.168
-33.543 19.0089 -202.602
-35.0863 40.9219 -215.044
-93.5566 72.5074 -205.204
-66.5148 56.8839 -214.69
-88.5106 44.5957 -197.885
59.5822 209.373 -174.183
[...]
POINT_DATA 642
SCALARS Mean_Curvature double 1
LOOKUP_TABLE default
0.0245827
0.033633
0.0214669
0.0211858
-0.012275
0.0184761
-0.00953733
0.000996621
0.0340354
0.0236134
0.0103441
0.0238429
0.318826
0.0145395
0.000750724
0.00734107
-0.00851843
0.0244875
0.0173435
0.0161659
-0.0777112
-0.069424
0.0174831
-0.000185356
0.0130401
0.0137377
0.0112424
0.0107387
-0.000343761
0.00746168
0.012723
0.0127133
0.011104
0.0134118
0.0157752
0.0182955
-0.00344609
0.0218907
0.0194668
0.00843016
0.00927439
-0.00290462
0.02468
-0.0229766
0.00606202
0.0151284
0.017572
-0.00035282
0.0117502
0.00504074
0.0155538
0.00952077
0.0149022
0.0150849
-0.00503425
0.0220656
0.0096851
-0.00475701
0.0450694
-0.0156353
0.0348681
0.0388921
0.0118464
-0.00341341
0.0124031
0.0158169
0.0197841
0.0087379
0.000714033
-0.00469325
0.0264883
0.0165666
-0.21083
-0.020454
-0.203959
-0.0326143
-0.00111029
0.00065567
0.0252171
0.0148971
0.00664636
0.00650677
0.00450692
0.0110469
0.0113275
0.0166187
0.00243947
0.0152785
0.00757137
0.00430328
0.0151702
0.00627918
-0.000485489
-0.010264
0.0101023
0.0457916
0.00852794
0.0101201
0.022011
0.0232005
0.00929155
0.0128072
0.094633
0.015923
0.0100392
0.00631156
0.00519961
0.0380215
0.023421
0.0253834
0.0146711
-0.0575688
-0.0418436
0.0256307
0.0144028
0.00526456
0.0174517
0.00172455
0.0250597
0.0174309
0.01033
0.0061238
0.0100887
0.0238039
-0.0128044
0.016392
0.00521664
0.0199964
0.0186152
0.0260034
0.0250232
0.0193616
0.0131908
-0.00891164
0.0154678
0.0211895
0.0242252
-0.0532267
0.00633621
0.002811
0.0264765
0.0164106
0.00199177
-0.0128846
-0.00765772
-0.000157869
0.0113495
0.00898023
0.00887003
0.010704
0.0144423
0.0209729
0.0106024
0.000140981
0.0139613
-0.0321118
0.0193898
0.0151453
0.0109773
0.0747504
-0.0148885
0.00388572
0.0177691
0.0229463
0.0220158
-0.0385529
-0.000763575
-0.0650236
-0.00684122
0.0064039
-0.00257028
0.0156134
0.0112594
0.00625698
0.0155672
0.0149627
0.0154252
-0.124245
0.00941102
-0.0946356
0.0126733
0.00898505
0.00838231
0.00615972
0.00842478
0.0101652
0.0142587
0.0124064
0.0134525
-0.0130302
0.00884681
0.0082137
-0.00391253
-0.00136067
0.00117475
-0.00186985
0.0214
0.00446234
0.00890858
0.00952924
0.0114927
-0.00189919
0.00584287
0.0169004
0.0130557
0.00509234
0.012225
-0.000614885
0.0042598
0.000210237
0.0120913
0.0151774
-0.0027385
0.000326037
0.00476877
0.0125116
0.00917751
0.0100325
0.0157229
0.0335543
0.0255409
0.0156336
0.0315501
0.0258837
0.0437546
-0.0148734
0.0152449
0.0422174
0.040324
0.0422777
0.0149277
0.0124443
0.00903756
0.0123715
0.0103001
0.0238046
0.00574305
0.0095495
0.0113997
0.0019062
0.016531
-0.00196905
0.0301819
0.0363231
0.0325372
0.00992019
0.0109042
0.0237594
0.0543012
0.0265199
0.0334868
0.000530902
0.0149185
0.00506537
0.007029
0.0141789
0.0125279
-0.00347741
-0.00127932
0.00780894
0.0148278
0.00919872
-0.00258742
0.133651
0.0104877
0.00148779
0.00512027
0.0146132
0.0120803
0.0251757
0.0166953
0.00015364
-0.0106669
-0.0168401
0.0862961
0.00330101
-0.017745
0.258085
0.0998736
0.0924962
-0.0269487
-0.210662
0.00225159
0.0115724
0.11778
-0.0326726
0.00373866
0.00252626
-0.0323867
0.186635
-0.0573634
-0.0892636
0.0259981
0.0296643
0.00186912
-0.00127047
0.00501123
0.016645
-0.00186539
0.00591112
0.00812244
0.0126392
0.0117896
0.018166
0.0118125
0.00900069
0.016755
0.00910186
0.0102751
0.00561673
0.00828278
-0.00114013
0.0185402
0.00927524
0.0144196
0.00668686
0.00778988
0.0064466
0.00818317
0.0209047
0.0137809
0.015285
0.0126297
0.00830209
0.014672
0.0151159
0.0117142
0.00288095
0.0104308
0.0150778
0.0150322
0.0151915
-0.00559824
-0.00116405
0.00458178
0.0212222
0.00961665
0.0475179
0.0106183
0.0126593
0.0107596
0.0120338
0.0104572
0.0110334
0.000575364
0.00324632
0.0105285
0.0100188
0.00207499
-0.00290212
-0.00162861
0.00598548
-0.0021276
0.0168952
0.0074143
0.00349704
-0.00661759
0.0288774
0.00321844
0.0158504
0.0162905
0.0195585
-0.0578595
-0.0877927
0.0241208
0.0221576
0.0155632
0.00366155
0.00590141
0.000192014
0.0250703
0.00497815
0.0158508
0.0176311
0.0101808
0.015686
0.0141135
0.00161006
0.00917188
0.007862
0.0164725
0.0276717
0.0203279
0.0228133
-0.0224131
0.00709749
0.00025086
0.0148623
0.0154746
-0.00454831
0.0119421
0.0171107
0.0141934
0.02302
0.0200708
0.0206334
0.0102213
0.00120062
-0.000813405
0.011402
0.0135901
0.0116717
0.00590563
0.0176639
0.0376402
0.0265561
0.0152931
0.0352814
0.0106711
0.00519308
0.033892
0.0178215
0.0639965
0.000192053
0.00626484
0.0124903
0.0192714
0.0118566
0.0223999
0.0145236
0.0224825
0.00418537
0.00671136
-0.00534709
0.00545185
0.0182655
0.0137302
-0.0254682
0.0194588
0.0129661
0.0259688
0.0181212
0.0104796
0.00679584
0.0188684
0.018726
0.00411393
0.0012667
0.00364911
0.00681889
0.0281692
0.0230253
0.00348661
0.0200289
0.0251905
0.02363
0.00757319
0.015414
0.0133843
0.021467
0.0235923
0.0144545
0.0280792
0.0190922
0.0193491
0.0141324
0.00802905
-0.00360783
-0.012071
0.0342006
-0.00874316
0.0171268
0.0208616
0.0236846
0.0164047
0.0154578
0.0156628
0.0292365
0.00366263
-0.00762594
0.00435504
0.00970902
0.0173187
0.0202069
0.0231044
0.0366116
0.0401081
-0.0121743
0.0229484
0.0211034
0.0137841
0.00376231
0.0246977
0.0264396
0.0144801
0.0215046
0.0249172
0.0220302
0.028725
0.0225403
0.0120651
0.0126555
-0.00841709
-0.0136861
-0.00463826
0.0132181
0.0165739
0.0061833
0.0145325
0.0202574
0.012943
-0.00104626
0.0208673
0.0155517
0.0282489
0.0255477
0.0196214
0.0221797
0.00715866
0.03066
0.0151597
-0.0185549
-0.0672016
-0.0276114
-0.141774
-0.0487045
0.0135053
0.0254301
0.00968279
-0.045079
0.0235113
0.0169283
-0.029534
0.00574857
0.00615292
0.0954547
-0.0183694
0.0193888
0.0050799
0.0133872
0.0338775
0.0301383
-0.00378871
-0.0133674
-0.0110836
0.00370135
-2.43167e-05
0.00283981
0.00183301
0.00780072
0.00755144
0.0157432
0.000440869
0.0181221
0.00265511
-0.000136714
0.000160884
-0.00170418
0.0269861
0.0237684
0.00188191
-0.000479645
-0.00281523
0.00715482
0.00383565
0.0174626
0.0279939
0.00897228
0.0157026
0.0122948
0.0103713
0.0114856
0.00483995
0.0149694
0.00754544
0.0159528
0.0158119
0.0113098
0.00960123
0.0177361
-0.00829667
0.013103
0.0169832
0.0179844
0.0186056
0.0236511
0.0113165
0.0189767
0.0190658
0.0244908
0.01318
0.00276001
0.000385005
0.016433
0.0166041
0.0206302
0.02409
0.0160712
-0.0822536
0.0190817
0.0191709
-0.148774
-0.0302902
0.026512
0.0151021
0.0139572
0.0213064
0.0164295
-0.119089
-0.023146
0.0528716
0.10307
0.0210349
0.0174192
0.0154401
0.00562526
0.0153054
0.0142104
0.0131755
0.0236727
0.0189695
0.00736451
0.0111998
0.0151716
0.0171697
0.0147882
0.00797242
0.020198
0.0134566
0.0223392
0.0168809
0.0182149
0.0142223
0.020626
0.00717029
-0.0124376
0.00818578
0.00200946
-0.0126133
-0.0098183
0.0425508
0.0409042
-0.00586134
-0.0335774
0.0329272
0.00135447
0.0118291
0.0295827
0.0313771
-0.148354
0.0407655
-0.0792724
SCALARS CoVolArea double 1
LOOKUP_TABLE default
524.359
600.212
819.638
877.717
1618.93
487.396
4788.94
1509.34
265.757
517.093
585.462
446.322
381.545
645.77
3358.25
2108.1
1256.3
1107.07
1180.44
1139.3
206.451
1070.07
644.975
2252.67
1267.15
536.226
573.208
1465.49
1123.36
2493.03
386.039
1299.57
1434.97
1445.58
1199.38
1047.04
3522.65
673.369
743.584
2497.97
739.985
1974.48
404.104
3504.56
833.2
545.969
1014.62
1294.98
532.402
756.21
684.375
997.24
686.276
568.946
2147
515.706
1109.4
1106.1
437.663
791.001
565.377
527.919
1306.35
1753.44
1426.66
1154.71
430.052
1377.15
1895.1
1153.21
870.86
899.883
142.637
4537.28
128.132
4969.26
1621.64
2733.33
256.841
731.044
688.891
864.984
839.804
717.979
994.097
805.453
1009.44
1095.42
2060.49
1575.26
1193.55
2161.15
1354.05
1978.13
856.218
2594.15
1249.61
572.742
625.232
585.858
1287.37
910.407
878.089
763.181
926.423
1804.91
1499.76
509.596
1119.68
754.184
1239.98
781.648
2533.37
760.555
1295.75
1224.52
699.393
1109.75
1270.38
1235.64
1443.77
2153.54
1489.13
1255.03
1794.86
1242.03
1800.33
1179.6
1151.06
688.894
626.284
992.479
1434.23
1452.91
1137.9
682.41
490.668
1109.4
1105.24
1911.87
1269.97
798.486
1618.04
3689.03
942.141
2614
1093.47
1438.53
1185.9
975.507
760.604
1051.93
603.881
1148.58
732.562
1009.32
709.023
883.776
947.091
1823.63
928.307
343.96
444.049
371.076
546.33
2216.33
1306.06
539.945
2997.65
2077.48
4279.19
547.042
554.31
479.757
615.292
533.947
535.476
1395.38
807.502
1414.35
563.404
634.544
632.001
2131.92
601.037
1250.99
604.349
578.52
635.656
2424.27
927.887
2288.27
913.119
860.873
2284.53
1276.16
609.912
721.814
1115.92
625.699
503.237
1905.99
1182.86
1000.68
1139.72
1959.74
725.772
748.269
613.231
1318.13
652.964
783.616
2477.38
1139.76
1857.43
1755.31
1966.07
1428.37
756.434
757.277
713.232
419.59
860.085
466.661
658.866
810.707
572.232
730.529
370.342
677.886
441.903
800.048
1416.22
1528.47
1471.71
1202.54
1551.83
1219.33
1268.48
1677.45
1355.68
775.008
1257.95
1159.51
621.618
527.287
1498.17
970.481
295.802
655.695
635.8
1712.48
1375.63
1753.79
1522.52
1133.27
1476.47
1759.04
1278.75
1152.78
663.375
388.181
677.104
281.338
1007.59
1158.85
1516.75
1718.71
1663.31
1005.1
504.292
113.388
331.511
375.713
188.255
2871.96
2289.1
298.102
1207.07
1608.72
521.524
77.0736
1560.06
770.641
1109.03
2719.82
2135.18
4508.59
4711.91
201.895
2266.48
701.71
483.649
401.311
3019.52
1936.61
939.375
1132.75
2288.62
734.092
704.314
608.721
569.894
585.158
570.603
1528.57
502.035
675.047
708.478
1797.16
868.568
1949.77
609.743
618.006
614.543
2064.82
863.451
2024.52
775.151
665.309
829.538
797.053
783.654
873.467
852.029
865.578
857.051
1438.55
1083.34
1035.38
717.872
758.221
3035.69
2120.27
1621.23
842.689
1407.61
565.958
1162.5
1626.21
1616.49
1164.51
1624.52
1293.5
1609.59
890.416
1353.61
1557.38
1326.18
2164.53
3161.24
1467.21
4168.49
576.474
1830.64
1056.41
2980.67
1247.61
2092.39
1214.33
710.47
2556.18
896.756
919.001
508.941
590.28
455.955
1432.6
881.447
2911.35
487.386
531.741
735.515
593.378
1148.28
522.916
667.647
1946.49
1540.96
1043.84
1014.75
807.577
1025.04
837.74
3396.55
1303.71
3218.47
762.18
771.91
908.555
1052.75
830.718
1073.83
844.352
975.029
769.807
1477.91
1786.79
1619.74
1445.84
1241.84
1483.74
1762.01
631.926
745.542
663.421
761.674
408.347
865.813
1380.45
398.002
1008.06
385.955
1772.56
1303.52
1067.86
528.462
1120.91
645.66
1757.15
1136.55
1851.16
2107.34
2400.47
1422.31
675.21
1385.39
1265.74
898.744
877.416
1061.63
972.05
990.392
846.523
1009.77
867.303
1150.19
1047.27
686.929
587.118
1246.34
941.501
1855.33
1311.45
1061.04
1201.06
1442.09
1011.4
1197.35
868.073
1194.25
1313.4
1681.37
1135.06
970.2
1373.15
2522.59
2549.09
5115.33
1241.87
1701.43
1292.3
1711.31
1110.48
1756.01
1410.8
1139.04
1521.53
1325.12
4541.33
1884.01
2024.25
898.644
1158.12
877.153
1236.84
1192.93
3300.69
761.658
719.976
1566.77
960.79
668.255
721.241
900.642
648.136
697.952
760.997
625.117
623.48
791.86
1475.85
3516.57
1977.23
3330.14
1109.02
1324.02
762.534
634.773
1211.58
952.539
1616.23
1464.24
1569.85
642.344
729.925
738.871
685
543.406
540.791
632.884
3516.46
1627.66
3768.1
832.696
980.035
676.163
657.447
849.519
955.991
523.283
956.819
1289.47
1494.18
1479.13
1157.12
4261.25
793.808
2651.47
822.195
984.832
619.529
703.789
1264.14
2990.94
1470.93
2829.56
1443.9
2916.83
3604.94
1783.76
631.643
1421.61
560.9
3167.75
2122.55
1518.95
1866.81
1249.62
812.323
1358.99
3143.05
2547.63
1904.78
1955.72
1390.74
626.469
1018.63
897.056
880.664
1181.05
1549.05
854.802
780.684
883.838
814.245
869.529
1611.09
1203.3
1095.59
2255.68
982.366
945.607
1362.81
667.65
961.435
1042.39
969.046
1063.33
1122.21
870.964
596.034
735.318
786.883
929.709
1011.22
892.439
661.677
1309.97
692.294
586.038
722.127
3817.5
592.538
670.161
597.337
635.13
740.932
809.469
3945.31
694.515
829.984
719.575
862.682
815.949
2682.22
540.914
760.262
631.371
602.487
836.503
1403.7
1076.48
895.982
870.473
836.524
1584.41
1026.12
1145.77
928.301
901.261
928.694
1064.23
994.51
728.979
1824.96
1673.48
2117.06
3050.37
1409.83
249.712
612.188
3200.92
3226.13
319.789
1435.55
271.404
257.494
271.445
687.64
202.066
1262.34
SCALARS SignedDistance double 1
LOOKUP_TABLE default
43.668
45.4607
34.6003
31.0677
36.6471
42.6618
47.3308
31.1361
47.9736
42.1274
48.2211
46.4847
109.857
40.6036
51.8127
52.7974
43.988
24.5633
29.7172
34.0318
57.2367
54.4927
39.0231
63.4982
32.7547
32.348
42.7494
46.4067
33.9889
42.9972
43.4736
30.6599
43.4909
31.6216
27.1078
28.237
42.7822
34.2586
35.4076
43.5156
39.4814
46.7746
61.6688
73.6351
52.8604
42.7496
48.4629
50.5612
45.0559
46.951
41.1673
47.183
43.9811
45.0817
52.8616
42.726
46.5292
49.4367
36.9135
43.47
37.9471
36.9139
28.3621
33.1144
26.9721
30.2188
42.3617
30.8695
34.7274
47.703
47.7876
43.8655
72.5065
67.978
67.3495
96.8421
47.9683
53.5243
50.2345
40.6715
44.31
46.4328
44.9851
41.9767
34.9591
36.0722
40.776
35.519
32.8109
34.6225
30.0014
45.1565
44.9914
50.9025
46.3529
64.855
44.9296
38.5188
36.58
49.0922
29.38
32.3686
71.1725
36.8051
39.2718
29.8722
31.1972
40.9871
30.099
39.4107
46.0935
55.3448
61.3782
39.5107
46.1408
37.0559
40.9208
42.0514
22.7122
25.8059
30.3615
38.7852
31.7287
21.2953
38.3667
30.8887
39.493
50.2996
30.766
26.8086
29.1284
30.6219
46.6688
49.3018
47.0385
35.3543
40.5858
73.8423
46.7915
49.5534
42.3038
46.0833
41.7534
57.4543
47.2649
44.7281
44.57
31.8064
34.9144
35.1897
39.3717
27.6727
43.6243
46.9496
36.3787
48.9782
33.8998
36.193
31.4026
71.7508
51.9059
46.9257
48.6462
54.6097
49.1289
109.426
64.9298
78.4124
54.1839
61.528
55.2415
45.4587
47.2784
47.8409
44.4595
45.9369
40.7992
85.4131
50.6138
71.3394
43.3478
44.4864
41.5281
48.6172
45.6959
47.6556
40.7065
44.4381
44.4393
52.9549
47.7347
51.9034
48.6338
46.1894
49.9113
49.9098
42.8691
46.7805
46.0443
43.9385
45.6859
52.8565
50.8078
49.7983
50.4191
52.7325
46.4786
47.4604
47.4269
44.8079
46.3545
42.6408
50.3935
47.491
49.4613
50.2356
50.9001
44.5263
42.1429
39.6137
37.7904
37.2383
37.9588
35.9048
32.78
42.9099
37.5785
31.177
34.6352
31.961
37.2664
43.0888
29.9645
26.8659
29.7531
25.6548
30.4982
31.3378
30.8701
30.8074
26.5995
45.1829
39.1266
31.6563
36.8261
40.1382
34.0791
32.546
55.6328
35.8061
43.9959
31.8871
30.2587
34.6876
30.1951
30.6869
29.2483
32.8147
49.5466
52.8909
46.0449
48.3354
44.9171
60.2585
37.2118
53.2851
47.3092
28.8872
43.3622
40.5508
49.3056
65.0708
60.5201
68.6563
84.5846
52.1984
57.6999
90.3972
84.9266
76.2553
65.61
63.9351
48.9135
46.8668
106.264
57.2134
49.9811
48.5191
82.612
68.7529
63.1311
74.3606
50.7312
45.7799
50.251
54.5152
52.1252
54.0858
59.7448
41.0013
42.8721
43.1099
43.5472
39.304
43.6468
45.4194
44.1803
43.0687
41.0446
49.1661
45.0678
48.468
39.8186
43.8815
42.7604
47.6378
45.3086
49.0177
38.8795
39.1521
37.6015
36.9576
34.3911
36.2962
33.3814
44.0199
41.6525
36.201
38.6773
38.6267
39.9258
38.0935
33.4822
33.3324
31.0872
32.7314
32.4736
32.0685
29.9285
33.1402
33.4151
34.9539
33.5984
34.4779
46.7531
45.9709
47.4762
48.026
44.1424
46.0659
45.574
58.3904
58.3289
44.5981
46.6908
43.4835
49.9796
50.0858
41.7941
40.3457
38.5717
62.4783
46.4451
52.2458
41.156
42.5867
44.4218
45.9659
45.1735
43.7468
46.0479
48.7095
34.7282
38.2305
44.4477
40.9217
38.3778
30.4932
29.5521
33.7748
31.8161
32.3565
29.2975
30.1454
72.0563
44.6695
44.487
39.5105
43.2217
55.2639
34.701
37.2242
32.4718
31.0414
31.8658
34.7267
29.9351
32.2678
32.2324
27.852
29.3483
28.8315
31.7601
38.9943
34.31
40.6067
32.8073
44.0782
39.7648
35.2054
43.9881
45.1317
46.7234
38.7501
45.4522
32.8793
46.7122
50.3239
42.0961
27.6849
35.596
38.9884
38.4613
60.1628
59.8165
40.6003
41.9143
48.5932
32.9631
38.6089
32.9239
40.213
41.0121
43.0505
33.1615
39.2114
35.4702
41.3922
41.1687
40.9184
33.2419
30.4754
31.0154
22.5631
21.7231
23.6968
29.8736
28.308
28.2979
39.3152
32.2029
30.3292
63.3384
30.3695
34.7924
40.9131
32.7117
64.6027
47.4782
28.6596
33.1954
25.0472
26.1267
22.5028
32.0886
26.9502
31.9401
64.8892
62.6561
60.9461
67.3685
32.4722
31.5526
43.8563
34.5183
43.646
37.5738
42.1849
31.1367
28.0726
38.8861
32.2967
29.3621
29.2904
31.2607
31.5723
29.1046
30.7635
28.7448
30.0661
32.5785
32.458
54.8128
56.9255
54.7172
37.1321
48.5551
38.9533
39.0769
43.3865
36.3085
41.7878
32.8115
41.4218
30.6569
34.8093
32.338
29.5005
40.7817
36.6206
38.6672
67.6057
68.0792
67.925
77.9654
54.4398
48.6257
38.8853
56.6294
65.6112
47.6605
40.0423
51.7771
42.0138
41.73
75.5921
57.879
38.2973
41.0871
39.3127
39.5968
37.6312
40.7705
41.6851
54.6783
48.6079
64.6243
46.7581
45.2904
47.8823
45.2329
48.1284
43.4518
43.5634
41.9024
42.6993
46.3216
44.9194
47.9761
50.6763
47.5513
45.1702
32.2978
30.471
32.9322
30.1726
32.4798
38.7003
35.3766
37.2846
35.7055
32.3614
38.5086
32.9925
36.368
36.5577
35.4082
32.9398
34.3316
32.1826
61.0733
33.2245
40.9667
45.3058
44.0249
29.1237
31.6785
28.5691
23.9444
25.9301
45.1549
43.6834
43.9456
43.5233
39.4311
35.8586
40.1013
43.2695
67.9376
38.4718
49.2298
77.9825
73.2522
35.9898
40.9998
37.7415
33.3129
33.5616
69.2133
60.9868
75.5227
59.229
43.5802
37.4031
41.3753
42.4982
40.1555
36.8173
37.6266
35.3938
31.3314
43.724
32.9254
37.4018
42.2564
38.9583
29.81
28.9303
30.147
29.9957
33.7727
33.681
32.4252
29.8386
44.9464
52.9934
45.5701
46.4284
60.7613
52.3341
48.674
49.1772
54.874
69.998
46.3859
50.5602
48.5087
46.6156
46.6081
73.5805
53.5777
66.1938
