# vtk DataFile Version 4.2
vtk output
ASCII
DATASET POLYDATA
POINTS 642 double
-246.103 430.402 51.4593
247.067 433.001 51.1873
-248.257 -372.861 53.1097
250.635 -375.968 53.2528
0.226259 -227.367 469.09
0.183351 270.747 447.642
0.267204 -209.21 -334.428
0.147781 283.447 -353.666
394.169 32.0167 -192.135
391.407 29.164 298.147
-389.47 31.9897 -189.579
-386.629 29.1116 295.564
-364.768 258.011 189.455
-229.63 171.428 428.566
-135.795 387.5 272.447
136.615 389.287 273.72
0.216038 506.007 50.9549
149.194 423.125 -188.137
-147.913 421.247 -186.987
-236.245 177.381 -330.782
-378.948 266.377 -91.6207
-442.337 31.4422 52.6441
231.407 172.391 430.866
362.345 256.39 189.462
-238.178 -119.644 441.072
0.294458 29.5437 534.84
-372.388 -202.192 -88.5358
-377.505 -205.47 202.472
0.259237 32.0637 -423.419
-230.687 -109.703 -323.131
381.473 267.855 -92.8845
237.628 178.154 -332.399
383.147 -208.529 203.822
240.095 -120.433 443.124
151.744 -367.246 300.819
-151.036 -366.011 299.875
0.12467 -442.673 53.2851
-146.005 -352.747 -181.52
147.143 -354.301 -182.53
232.192 -110.545 -324.744
377.263 -205.682 -90.3374
447.867 29.957 53.7368
-319.746 355.367 124.812
-263.041 337.899 239.46
-198.738 427.259 168.931
-321.289 103.016 374.317
-309.858 220.284 321.308
-386.088 145.526 251.082
-72.0151 341.749 373.158
-191.211 294.318 367.53
-119.278 228.944 453.738
-75.3322 470.073 169.887
-128.695 487.838 51.0045
72.6162 342.177 373.574
0.205222 406.558 285.932
129.962 489.741 51.0887
76.0984 470.904 169.951
199.454 429.246 169.087
-78.7186 491.173 -73.6533
-206.086 444.059 -71.2576
208.419 447.651 -72.1963
79.2898 492.224 -73.9366
-76.944 365.201 -283.62
0.187976 441.936 -200.202
77.4566 365.813 -284.195
-278.453 358.463 -148.146
-326.848 362.657 -22.9417
-123.718 238.078 -358.181
-201.26 311.382 -274.013
-401.274 154.436 -148.357
-323.72 231.827 -222.852
-327.15 106.432 -272.283
-393.778 276.089 51.5252
-429.853 34.9403 -71.4331
-440.828 154.854 -22.9982
-427.728 154.184 123.99
-427.784 29.1226 179.006
261.414 336.699 239.113
320.667 356.442 124.939
120.195 229.604 455.108
192.673 295.687 369.161
390.044 146.559 252.622
312.516 221.731 323.391
324.208 103.53 376.726
-122.398 105.758 502.677
0.275371 157.165 507.873
-327.315 -47.2472 379.772
-245.266 29.2169 453.117
0.0605238 -101.547 516.57
-124.087 -48.0463 507.555
-126.367 -182.433 474.11
-423.795 -90.302 129.081
-397.044 -93.434 257.18
-388.345 -88.7723 -143.721
-427.241 -91.0561 -20.2988
-321.338 -296.9 131.23
-390.386 -214.107 52.895
-324.613 -300.3 -21.6482
-247.628 31.8136 -348.529
-323.63 -41.5615 -268.914
0.208129 161.429 -406.972
-125.023 109.063 -400.867
-120.221 -167.891 -345.358
-123.735 -44.6247 -395.794
0.149793 -95.407 -398.171
202.678 312.954 -275.694
124.321 238.67 -359.217
327.675 363.803 -23.6444
280.28 360.823 -149.451
330.101 106.74 -274.466
325.831 233.241 -224.842
401.759 154.206 -149.253
324.817 -299.685 131.991
284.42 -304.304 260.961
210.231 -387.82 182.702
329.842 -47.706 381.844
330.414 -175.297 337.597
402.712 -94.727 259.493
79.6508 -312.363 400.911
207.936 -258.708 392.345
127.185 -183.619 475.823
79.5048 -432.077 184.858
131.135 -428.917 52.9387
-79.1784 -311.617 400.135
0.167689 -385.352 312.41
-130.099 -427.304 53.0044
-79.1281 -431.299 184.732
-208.214 -384.937 182.24
78.7598 -423.204 -71.0233
207.576 -382.671 -70.211
-205.809 -380.145 -69.4291
-78.2372 -422.758 -70.9034
76.1118 -294.827 -272.548
0.16232 -370.05 -192.738
-75.546 -294.513 -272.258
277.979 -296.663 -146.43
328.558 -303.572 -22.4261
120.855 -168.631 -346.25
198.444 -246.034 -266.182
391.949 -88.8866 -144.55
319.217 -168.522 -217.719
326.635 -42.1673 -271.181
395.606 -217.538 52.9006
435.986 33.4679 -73.571
435.632 -92.9154 -21.1375
429.679 -91.5042 129.624
434.666 29.3713 180.817
124.96 -48.0418 509.708
247.441 29.469 456.051
123.388 106.06 504.713
-282.76 -302.651 260.517
-206.587 -257.21 390.553
-327.838 -174.351 335.909
-196.734 -244.421 -264.293
-275.05 -293.988 -144.646
-315.981 -166.238 -215.265
249.325 31.7945 -350.49
124.208 -44.7385 -396.726
125.489 109.198 -402.009
421.355 149.283 124.156
438.411 155.33 -23.5898
394.892 276.852 51.5016
-286.278 396.12 88.8874
-262.736 396.2 148.267
-224.456 433.04 111.626
-318.089 302.073 216.941
-294.935 351.623 184.044
-346.093 309.012 158.324
-169.238 413.481 220.322
-234.441 387.52 204.992
-200.964 365.212 256.875
-357.614 66.4934 337.654
-358.868 125.718 315.403
-390.2 88.6227 275.319
-273.762 198.069 378.412
-318.723 163.781 350.787
-278.325 138.232 404.84
-374.94 202.203 219.724
-351.597 184.76 288.544
-338.071 239.336 256.88
-36.565 309.341 413.434
-96.5966 289.425 417.857
-59.9401 252.026 454.584
-165.231 344.21 326.06
-133.208 321.168 373.505
-105.265 367.006 328.2
-176.234 201.898 444.992
-157.561 264.425 413.812
-212.778 236.14 402.246
-288.742 281.728 283.936
-254.13 260.524 348.301
-229.207 317.582 308.04
-166.05 462.356 111.635
-188.777 462.685 51.1068
-107.962 435.033 221.821
-137.953 452.969 170.668
-65.5847 502.308 51.0154
-102.52 484.252 112.271
-38.9851 494.242 112.097
36.9896 309.512 413.68
0.16969 346.425 378.063
69.4163 402.438 283.168
36.4831 377.59 334.618
106.132 368.027 328.713
-35.9986 377.294 334.509
-68.5275 401.62 282.535
190.588 466.062 51.0699
167.494 465.164 111.957
225.343 435.415 111.727
39.5087 494.797 112.196
103.485 485.663 112.527
66.153 503.085 51.0522
169.552 414.593 220.764
139.016 454.997 171.026
108.816 436.028 222.326
-37.3912 444.52 228.704
37.7152 444.12 228.534
0.172534 474.479 170.975
-169.925 473.233 -10.8155
-228.403 441.319 -10.0385
-39.8509 506.365 -11.5957
-105.201 495.783 -11.5806
-178.932 436.915 -130.7
-144.284 473.005 -74.1494
-115.051 461.853 -132.741
230.426 445.03 -10.7354
171.78 476.112 -11.1132
115.909 463.309 -133.384
145.594 475.017 -74.6627
180.686 439.487 -131.81
106.077 497.275 -11.7379
40.3017 506.968 -11.6733
-38.7296 327.173 -322.484
0.148368 369.768 -288.489
39.0656 327.399 -322.766
-75.4959 437.494 -197.444
-39.1411 407.848 -245.177
-113.628 397.028 -238.239
114.491 398.243 -239.136
39.5208 408.132 -245.372
76.069 438.391 -197.955
0.201141 496.628 -75.2203
40.3276 473.583 -139.972
-39.8838 472.975 -139.706
-269.894 406.95 -47.8722
-289.532 400.379 13.9342
-215.725 393.78 -169.729
-244.561 404.467 -111.469
-356.404 317.157 -58.2925
-305.866 363.731 -86.7922
-333.344 315.913 -121.911
-62.5485 262.914 -359.709
-101.461 305.051 -325.723
-220.876 246.468 -306.205
-164.279 277.3 -319.853
-182.062 209.397 -348.614
-140.997 341.761 -282.425
-176.579 370.072 -234.149
-396.687 93.3278 -169.725
-366.613 131.263 -211.619
-362.078 69.1638 -233.408
-356.205 251.724 -160.169
-367.486 194.952 -188.454
-394.54 211.261 -122.317
-284.92 142.816 -305.091
-327.318 170.296 -249.55
-282.472 206.126 -279.787
-243.307 339.147 -214.521
-266.404 274.59 -252.366
-305.5 298.663 -189.177
-328.006 363.876 51.5934
-392.61 275.241 -20.3736
-364.884 322.053 14.1461
-360.745 318.833 88.7578
-384.224 270.254 122.298
-414.727 33.8213 -132.56
-421.981 94.8658 -110.903
-447.247 97.3813 12.6248
-440.548 97.3375 -47.721
-437.14 34.6036 -8.6522
-425.5 155.957 -86.4739
-415.434 211.549 -58.4533
-413.09 88.268 217.797
-412.107 29.1076 238.816
-403.25 207.433 158.02
-406.653 149.515 186.515
-438.186 28.8702 116.074
-425.466 90.5732 152.445
-433.635 93.8596 87.2402
-423.353 217.203 13.8087
-441.204 156.939 50.1566
-418.519 215.415 88.8811
263.391 397.618 148.37
287.077 397.64 88.9398
200.916 366.558 258.207
234.522 388.831 204.813
346.631 310.201 157.475
295.397 352.841 183.237
316.315 300.361 216.286
60.5049 252.285 455.141
97.3817 290.027 418.735
214.467 237.425 404.267
158.764 265.476 415.384
177.548 202.801 446.956
134.226 322.152 374.581
166.253 345.553 327.259
394.598 88.971 277.372
362.43 126.513 317.568
361.368 66.6038 340.102
340.417 239.338 259.507
354.891 185.974 290.382
378.145 201.824 223.498
280.628 139.071 407.251
321.609 164.916 353.051
276.055 199.378 380.665
230.392 318.685 310.204
256.176 262.057 350.285
290.503 282.211 286.665
-60.6385 195.721 486.254
0.223629 216.369 481.523
-178.676 140.512 470.309
-122.316 169.229 482.414
0.303107 94.3599 525.996
-61.7125 132.348 510.473
-62.1396 68.4829 524.782
-359.252 -9.30686 339.257
-327.608 28.9741 380.309
-244.672 -45.4298 451.544
-288.173 -9.44861 419.079
-285.992 -84.2861 413.62
-286.469 67.1019 417.281
-240.722 101.923 445.721
-0.0451734 -166.477 496.697
-63.6331 -144.666 500.655
-64.4527 -207.862 477.229
-62.6478 -9.50227 528.629
-63.0421 -75.5481 517.481
0.287168 -35.6442 531.409
-185.006 -153.059 462.471
-126.588 -116.371 494.004
-183.471 -85.8018 479.204
-186.54 68.0864 483.804
-188.018 -9.67081 486.214
-125.083 29.6289 512.667
-416.622 -31.3115 219.634
-394.266 -32.4496 277.773
-438.945 -29.8651 91.0217
-429.92 -30.1455 154.741
-392.777 -151.731 231.998
-413.581 -93.5399 194.937
-406.703 -149.466 167.948
-391.908 -27.2399 -169.919
-410.005 -27.0441 -108.233
-406.543 -148.744 -55.715
-412.092 -92.3961 -81.8174
-385.211 -147.773 -117.463
-430.401 -30.2841 -44.8278
-438.89 -30.7919 16.4819
-288.276 -339.146 92.4443
-328.112 -304.026 53.0694
-289.641 -340.303 15.2088
-382.131 -209.757 128.007
-360.611 -258.95 91.8355
-355.162 -256.189 169.169
-352.228 -253.94 -56.4635
-361.914 -259.891 15.6137
-386.405 -211.444 -18.5197
-431.009 -91.9081 53.0028
-416.035 -155.094 15.3585
-413.315 -153.945 91.6876
-330.414 31.8574 -275.338
-360.223 -5.14147 -232.032
-245.526 105.381 -345.1
-290.469 69.7618 -314.336
-280.148 -76.3478 -299.565
-288.971 -5.81639 -312.482
-242.782 -40.75 -340.812
0.166848 223.619 -383.596
-62.8262 202.073 -388.345
-63.1987 71.1032 -418.639
-63.3327 136.031 -408.791
0.262033 97.1088 -420.742
-126.012 174.717 -384.384
-183.32 145.035 -371.465
-61.1103 -190.501 -343.91
-61.2795 -133.671 -378.159
0.199029 -153.405 -372.4
-180.198 -79.3651 -364.665
-123.379 -107.808 -375.589
-177.062 -140.679 -338.527
0.199406 -32.744 -415.192
-62.4883 -70.9612 -401.742
-62.8179 -7.06696 -415.029
-189.458 70.7196 -380.716
-126.287 31.8263 -405.112
[...]
POINT_DATA 642
SCALARS Mean_Curvature double 1
LOOKUP_TABLE default
0.00483913
0.00469846
0.00530282
0.00524483
0.00317845
0.005363
-1.98967e-05
0.00477524
0.00535119
0.00510879
0.0052967
0.00480887
0.004172
0.00437028
8.81778e-05
0.000746559
0.00366322
0.0046538
0.00464911
0.00443963
0.00405561
0.00325775
0.00437551
0.00223381
0.00388888
0.00527199
0.00423067
0.00494704
0.00449302
0.00482473
0.00445502
0.00434392
0.00584972
0.00407452
0.00463161
0.00454372
0.00305033
0.0045318
0.00456451
0.0047446
0.00511382
0.00423073
0.0045616
0.00195008
0.00442588
0.00442331
0.00428879
0.0043193
0.004359
0.00439017
0.00432662
0.00481412
0.00487101
0.00422538
0.00111804
0.00477973
0.00477448
0.00456109
0.00495176
0.0045304
0.00505686
0.00489057
0.00426792
0.00364283
0.00422185
0.0042971
0.00500038
0.00396556
0.00392084
0.00540399
0.00423804
0.00448788
0.00446682
0.00277616
0.00670718
0.00603162
0.00385604
2.57387e-05
0.00465566
0.00435321
0.00447964
0.00421876
0.00444497
0.00428206
0.00429975
0.00448004
0.00494457
0.00418278
0.00324851
0.00336687
0.00484468
0.00153667
0.00482576
0.00258005
0.00419788
-0.000122715
0.00449287
0.0046146
0.00473044
0.00456892
0.00417893
0.00454225
0.00340402
0.00462624
0.00421487
0.00396863
0.00395019
0.00430871
0.0041407
0.00422988
0.00447232
0.00384945
-0.000652538
0.0039298
0.00573028
0.00373689
0.0044931
0.00516078
0.00461648
0.00456051
0.0055751
0.00690524
0.00471895
0.0045938
0.00276132
0.00463948
0.00696635
0.00540561
0.00438157
0.00459411
0.00458516
0.00473976
0.00430773
0.00309934
0.00467665
0.00448299
0.004568
0.00328975
0.0047643
0.00170116
0.0048342
0.004532
0.0050293
0.00469023
0.00684285
0.00172501
0.00493525
0.00370774
0.00443972
0.00439483
0.00504131
0.00448558
0.00516527
0.00469127
0.00450518
0.00444489
0.00469298
0.00451954
0.00442571
-0.000585854
0.00542422
0.00464527
0.00450883
0.00455169
0.00416695
0.0033448
0.00504032
0.00469749
0.00489946
0.00556563
-0.000588062
0.004447
0.00442637
0.00441378
0.00439426
0.00442575
0.00440229
0.000990329
0.00432762
0.00281788
0.00438531
0.00433719
0.00429023
0.0044472
0.00448704
0.00468705
0.00436392
0.0044116
0.00436907
0.00329614
0.00435962
0.00411892
0.00420504
0.00401612
0.00422131
0.00459493
0.00486843
0.00491111
0.00457506
0.00431503
0.00467282
0.00117656
0.00465422
0.00459539
0.00475574
0.000934361
0.0046343
0.0046847
0.00419788
0.004632
0.00485123
0.00471612
0.00447747
0.00495761
0.00425584
0.00440466
0.00374834
0.00338127
0.00507833
0.00401696
0.00499578
0.00522012
0.00442326
0.00498855
0.00455922
0.00462215
0.00522442
0.00444804
0.0047986
0.0044644
0.00511853
0.00503443
0.00432418
0.00403801
0.00427463
0.00470518
0.00423368
0.0045317
0.0044992
0.00411582
0.00468378
0.00382744
0.00438309
0.00431683
0.00411817
0.00466514
0.00398641
0.00390383
0.00419258
0.00418909
0.00440713
0.00381348
0.00428182
0.00373126
0.00404328
0.00428313
0.00427487
0.00405369
0.00301391
0.00285809
0.00435316
0.00418551
0.00557125
0.00427287
0.00450137
0.00321106
0.00360484
0.00405849
0.00409122
0.00438742
0.00458611
0.00492267
0.00480688
0.00460092
0.00438153
0.00545474
0.00353287
0.00651862
0.00541034
-0.000769349
0.00562127
0.00420745
0.00492717
0.00450505
0.00539998
0.00134045
0.00391686
0.00111873
-0.00179294
0.00461915
0.00669625
0.00470304
0.00450841
0.00434441
-0.000269284
0.00556793
0.0055328
0.0056751
0.00139448
0.00418714
0.0043309
0.00442631
0.00445736
0.00438629
0.00450439
0.00449764
0.00435884
0.00437853
0.00428545
0.00353533
0.00441569
0.00332014
0.00436098
0.00444002
0.00442211
0.00453453
0.00448663
0.00413516
0.00436671
0.00451624
0.0043136
0.004268
0.00467215
0.00437663
0.00456079
0.00291282
0.00412134
0.00437337
0.00310641
0.00407427
0.00439535
0.00438912
0.00358675
0.00415498
0.00537917
0.00528666
0.00331076
0.00485866
0.00528728
0.003589
0.00369169
0.00429553
0.00386051
0.00456047
0.00419726
0.00350352
0.00406768
0.00284105
0.00625408
0.0029478
0.00497549
0.00497178
-0.000646627
0.0052466
0.0039075
0.00498695
0.00371936
0.00386667
0.00349677
0.00464088
0.00457124
0.000263082
0.00423781
0.00628374
0.00460236
0.00461292
0.00416538
0.00333319
0.00530543
0.00395668
0.00472408
0.00451258
0.00471318
0.00438696
0.00489471
0.00458868
0.00461876
0.00347565
0.00415583
0.00477264
0.00422856
0.00445126
0.00445046
0.00457437
0.00222031
0.00478578
0.00458802
0.00462335
0.00457094
0.00442379
0.00404939
0.00438465
0.00419358
0.00445854
0.00448497
0.00465115
0.00425001
0.0038061
0.00431755
0.00420207
0.00417751
0.00411156
0.00388895
0.00418979
0.00451431
0.00436203
0.00442503
0.00438541
0.00412761
0.00436396
0.00497705
0.00350299
0.00412145
0.00363441
0.00342343
0.00436138
0.00498047
0.0042753
0.00447436
0.00402118
0.0043241
0.00410513
0.00359244
0.00504228
0.00184458
0.00437106
0.00626159
0.0064241
0.00403535
0.00532889
0.00434172
0.00341525
0.0052072
0.00268093
0.00505441
0.00402941
0.00491929
0.00608357
0.00495172
0.00438917
0.00495894
0.00445463
0.00588497
0.00455652
0.00459989
0.00460832
0.00478019
0.00468654
0.0045817
0.00434581
0.00438049
0.00451044
0.00159972
0.00467546
0.00403282
0.00580099
0.00416709
0.000901876
0.00132511
0.0050135
0.00258503
0.00452761
0.00500412
0.00453672
0.00502246
0.00454757
0.00469073
0.00160438
0.0013514
0.000973761
0.00122834
0.00462685
0.00469541
0.0056442
0.00437981
0.00453164
0.00431893
0.00504917
0.00462071
0.00462171
0.00419121
0.00505747
0.0045899
0.00464921
0.00464598
0.00462937
0.00467465
0.00458523
0.00462224
0.00458997
0.00475604
0.00425491
0.00427223
0.00284899
0.0043846
0.00439617
0.00446782
0.00465439
0.00449657
0.00433976
0.00479073
0.00332954
0.00424232
0.00439513
0.0045803
0.00455212
0.00448432
0.00458088
0.00463105
0.00456132
0.00447189
0.00243959
0.00412356
0.00116583
0.00330933
0.00430078
0.0045075
0.00456473
0.00502268
0.00403445
0.00448972
0.00504583
0.00281742
0.00383097
0.00482975
0.0031403
0.000370637
0.00451202
0.00486694
0.00450789
0.00465841
0.0049894
0.00472672
0.00434248
0.000190293
0.00569948
0.000444989
0.00324216
0.001553
0.00101821
0.00495274
0.00343075
0.00459779
0.00441523
0.0047137
0.00343277
0.00318489
0.00198392
0.00446791
0.00376024
0.00396813
0.00338769
0.00266204
0.00345686
0.00318719
0.00387281
0.00539494
0.00426648
0.0042753
0.00419327
0.00385845
0.00312462
0.00436236
0.00467943
0.00446391
0.00427556
0.00431024
0.00424531
0.00436501
0.00464957
0.00582
0.00464477
0.00431687
0.00489522
0.00467007
0.0044733
0.00462593
0.00452736
0.00457747
0.00449093
0.00483666
0.00496152
0.00454272
0.00346354
0.00527178
0.00439827
0.00436902
0.00431483
0.00397885
0.00456814
0.00448113
0.00313729
0.00123321
0.00457211
0.00445714
0.00459987
0.0045715
0.00449275
0.00391916
0.000603502
0.00309997
0.00355721
0.0043229
0.00451541
0.00442108
0.00466886
0.0046758
0.00456204
0.00452962
0.00475782
0.0044539
0.00470724
0.00436349
0.00437478
0.00448824
0.00457905
0.00419261
0.0045038
0.00436757
0.00442549
0.00511931
0.00456842
0.00443219
0.00455904
0.00464764
0.00195781
0.00333849
0.00454033
0.0012819
0.00334532
0.00489016
0.00508279
0.00490475
0.00148572
0.00455196
0.00529489
0.00471078
0.00469161
0.00443998
0.00633959
0.00518013
0.00604571
SCALARS CoVolArea double 1
LOOKUP_TABLE default
3442.65
3469.51
3519.24
3561.84
3706.96
3320.3
3520.35
3588.81
3342.38
3371.3
3306.39
3310.02
4251.61
4314.16
4411.81
4398.31
4535.89
4664.73
4629.93
4533.56
4460.57
4332.56
4362.67
4316.77
4601.85
4539.1
4300.27
4390.32
4551.76
4426.03
4467.65
4579.04
4470.98
4658.05
4809.18
4772.37
4683.93
4471.37
4506.34
4475.38
4381.86
4326.3
4055.23
4515.86
4016.26
4063.83
4407.51
4030.17
3926.93
4362.59
4104.82
4463.55
4239.66
3948.18
4563.31
4269.21
4485.33
4028.82
4852.9
4340.09
4368.93
4879.16
4404.8
4920.05
4423.6
4766.24
4219.96
4373.29
4811.82
4127.57
4705.92
4215.2
4526.73
4143.53
4329.21
4414.08
3999.43
4618.24
4050.31
4128.02
4379.92
3994.73
4416.42
4129.74
4678.14
4220.38
4218.4
4676.15
4493.58
4852.19
4464.6
4545.68
4088.93
4139.84
4371.57
4355.09
4553.34
4187.24
4665.25
4115.59
4382.44
4772.61
4207.48
4676.48
4200.17
4849.04
4394.28
4272.66
4819.84
4259.89
4754.24
4209.85
4436.14
4916.55
4434.31
4280.12
4847
4163.23
4591.35
5003.89
4490.52
4912.55
4410.41
4574.49
5065.39
4378.13
4895.98
4398.31
4777.64
4329.68
4280.3
4757.34
4195.04
4737.24
4176.55
4700.66
4267.27
4226.91
4653.14
4232
4637.07
4174.18
4655.76
4124.29
4440.2
4623.76
4009.77
4868.63
4726.49
4706.4
4840.14
4963.5
4763.12
4613.33
4626.12
4584.15
4709.71
4700.6
4794.17
4632.31
4432.8
4488.13
4070.19
4063.87
4083.01
4409.11
4043.26
3957.98
4023.7
4069.98
4559.97
3988.27
4015.2
3876.92
4381.49
4038.32
4030.61
4067.55
4060.99
4433.8
3941.02
4065.58
4017.47
4417.75
3978.07
3974.73
4056.87
4069.93
4391.67
4957.31
4883.99
4966.3
4199.9
4169.49
4437.08
4061.63
4219.26
4197.19
4572.15
3951.27
3968.5
4522.99
4053.28
3981.66
4044.1
4519.77
4185.93
4211.7
4105.13
4583.03
4214.74
4242.56
4037.66
4074.95
4449.98
5010.09
5027.9
5018.48
4342.57
4210.09
4759.75
4363.6
4332.49
4405.51
4806.6
4232.15
4373.84
4843.04
4449.48
4373.36
4400.29
4771.8
4321.29
4470.96
4329.54
4829.21
4487.55
4355.9
4382.59
4498.31
4851.88
5429.93
5462.74
5450.16
4337.54
4144.16
4768.01
4396.34
4179.42
4336.37
4656.71
4317.89
4426.61
4735.5
4415.03
4295.76
4431.15
4778.56
4052.77
4252.31
4081.64
4621.03
4243.93
4120.93
4214.32
4304.8
4695.12
5322.67
5297.43
5252.41
4188.97
4550.6
4200.31
4128.2
4379.71
3994.62
4095.12
4357.67
4025.42
4094.86
4081.61
4516.03
4031.08
3897.17
4345.8
4136.76
4049.83
4188.53
4537.91
4959.44
4822.09
4849.55
4073.75
4113
4593.6
4116.63
3989.72
4090.71
4507.96
4031.83
4086.82
4431.29
4097.32
4090.5
4001.17
4423.97
3958.34
4088.33
4051.21
4449.28
4058.58
4037.29
4089.94
4098.6
4431.34
4996.5
4895.24
4999.43
4211.79
4069.75
4551.94
4223.97
4231.76
4286.31
4674.75
4073.82
4194.83
4710.3
4290.96
4255.75
4200.12
4538.55
4436.22
4524.56
4428.58
4741.34
4499.12
4346.66
4379.46
4498.01
4792.75
5197.34
5297.17
5277.38
4075.03
4019.09
4399.52
4097.7
4030.51
4124.71
4497.32
4010.12
4231.19
4353.42
4112
4001.05
4183.95
4396.97
4277.71
4290.48
4169.02
4610.21
4301.44
4226.17
4103.02
4194.15
4435.13
4930.72
4922.49
5057.49
4179.87
3991.79
4651.39
4253.75
4119.81
4198.49
4541.94
4328.41
4428.53
4721.67
4406.48
4301.7
4398.6
4702.63
4185.33
4235.7
4166.25
4549.75
4227.62
4150.23
4240.63
4276.76
4687.17
5253.93
5264.94
5199.49
4448.24
4328.17
4812.9
4460.52
4327.81
4443.72
4772.75
4194.82
4371.89
4702.82
4378.32
4220.14
4432.11
4808.53
4107.71
4296.33
4090.6
4740.45
4356.02
4264.36
4150.97
4305.56
4660.94
5374.2
5312.86
5344.73
4346.26
4467.5
4372.76
4747
4418.23
4289.49
4439.46
4469.67
4942.14
4145.62
4281.25
4103.59
4803.42
4367.62
4305.16
4117.34
4304.7
4717.56
4493.42
4586.79
4440.74
4974.59
4626.08
4533.38
4423.07
4570.83
4876.64
5459.22
5478.56
5533.59
4535.17
4323.05
4901.57
4518.33
4379.29
4548.33
4908.68
4489.01
4651.07
4976.92
4644.19
4513.47
4650.76
4991.62
4283.92
4506.06
4335.58
4901.83
4521.21
4358.46
4388.19
4483.46
4867.99
5509.94
5502.35
5457.11
4368.89
4246.53
4744.61
4370.65
4268.57
4374
4699.87
4189
4330.34
4671.02
4341.6
4226.77
4345.28
4733.32
4164.41
4256.12
4158.28
4669.4
4295.7
4180.07
4155.06
4285.86
4648.43
5324.45
5289.35
5301.83
4352.48
4236.79
4667.26
4352.86
4164.49
4323.38
4589.65
4188.98
4249.99
4696.15
4282.38
4184.45
4241.06
4608.41
4061.48
4225.26
4051.98
4531.86
4253.55
4107.43
4173.66
4278.31
4704.48
5161.7
5189.56
5124.43
4375.74
4538.85
4258
4370.58
4697.89
4011.71
4234.44
4446.35
4222.14
4139.35
4179.68
4463.77
4150.75
3974.99
4593.88
4207.06
4035.25
4187.01
4452.26
5034.71
4975.98
5167.18
4555.16
4843.93
4532.22
4513.72
4745.8
4253.49
4590.69
4255.31
4340.46
4773.84
4225.67
4688.66
4298.49
4249.4
4593.99
5341.01
5236.71
5298.11
4414.94
4884.79
4418.76
4358.77
4659.65
4573.69
4826.68
4542.26
4597.52
4936.98
4213.97
4616.74
4232.06
4311.36
4741.32
5471.85
5411.2
5363.22
4234.59
4565.99
4214.68
4258.46
4654.2
4285.44
4526.93
4245.09
4292.31
4612.74
4139.05
4650.89
4215.82
4150.94
4465.85
5097.82
5064.85
5139.35
4236.89
4590
4250.97
4303.67
4699.58
4247.06
4692.38
4288.14
4254.34
4588.76
4437.67
4742.61
4421.33
4412.51
4724.31
5239.43
5286.83
5293.05
4003.87
4527.56
4148.04
4142.2
4508.83
4141.17
4512.1
4157.57
4114.33
4453.92
4234.46
4404.73
4119.15
4243.08
4567.18
4962.8
4947.29
4965.36
SCALARS SignedDistance double 1
LOOKUP_TABLE default
282.252
276.999
250.921
235.838
204.526
301.076
310.339
227.065
295.325
299.064
316.291
318.474
357.849
298.761
359.539
353.184
273.751
210.336
221.258
247.195
267.647
355.732
287.583
352.268
243.093
231.214
299.041
298.52
240.641
296.266
262.794
237.002
277.839
230.413
188.357
195.486
248.422
252.538
246.344
287.708
282.99
336.403
317.01
360.573
329.938
305.714
336.58
346.289
332.681
332.189
297.617
324.892
275.784
329.025
352.949
268.362
322.452
326.089
219.992
240.385
227.809
216.054
220.377
214.224
216.78
241.133
264.043
232.111
238.873
304.308
263.894
276.302
305.246
356.449
326.839
368.731
349.493
352.08
313.341
291.398
323.263
329.297
324.36
291.699
264.55
265.696
284.036
271.178
223.204
239.083
211.195
333.648
314.11
334.19
333.647
286.195
304.059
268.304
260.243
301.429
226.882
231.466
301.504
260.989
273.198
229.089
227.099
259.127
231.157
257.954
254.631
292.438
268.203
219.804
233.693
265.889
237.262
291.414
176.528
191.487
208.207
229.359
233.043
179.948
197.093
237.482
230.864
242.357
235.506
227.727
239.808
235.181
281.901
264.33
281.498
252.322
248.611
297.804
280.336
318.641
300.624
286.706
286.896
338.012
320.814
318.73
327.775
229.836
258.989
256.761
238.78
203.253
258.976
288.355
267.976
310.914
249.236
257.049
226.515
346.591
319.069
302.958
298.649
321.78
305.559
359.099
340.285
336.814
352.288
345.75
360.546
311.587
325.769
332.047
317.372
320.813
301.485
361.979
341.085
357.123
317.184
315.458
299.098
348.129
332.417
347.524
297.532
314.757
315.126
354.844
334.061
351.681
305.475
281.02
349.258
330.472
270.76
300.977
297.963
315.528
329.367
352.251
342.193
341.823
344.031
355.615
273.106
298.97
301.172
299.036
296.18
268.832
347.833
325.08
345.275
345.697
344.444
323.175
255.597
260.152
244.04
246.454
227.136
228.512
214.618
252.378
244.902
206.114
217.502
213.943
240.061
245.388
222.664
217.55
221.088
210.945
214.792
219.953
212.828
214.853
207.55
223.6
211.293
209.579
250.848
271.205
232.998
238.772
261.587
248.38
252.204
229.105
227.776
246.185
236.352
237.775
229.076
231.022
314.947
295.452
294.684
263.552
281.926
280.423
260.074
277.5
261.482
238.946
249.752
248.948
288.856
282.153
283.098
309.636
331.186
337.736
332.764
358.915
343.459
357.42
312.2
289.383
348.068
334.313
360
364.068
352.62
358.833
361.79
308.654
346.287
333.677
318.09
294.44
352.991
342.083
333.334
336.318
351.915
296.537
310.81
305.011
306.856
288.376
325.798
339.902
313.917
310.683
295.261
342.86
327.272
344.699
288.865
307.624
305.429
341.209
323.235
342.622
281.571
283.272
281.198
280.477
248.231
263.768
247.54
301.084
293.845
261.796
276.831
261.813
287.829
283.911
225.835
227.057
204.085
230.894
229.193
217.907
226.562
230.895
241.518
266.475
253.658
248.758
334.946
317.077
344.061
341.297
309.45
331.955
328.501
332.906
346.013
318.307
332.18
317.595
347.658
346.088
267.68
274.341
257.377
314.262
295.091
294.876
282.962
285.461
298.021
335.72
319.556
327.531
286.219
307.727
250.071
265.668
297.459
279.918
276.914
229.921
228.748
234.29
228.133
227.252
229.663
235.43
305.273
285.94
292.747
277.258
280.567
298.089
255.445
265.739
249.244
241.988
242.368
257.593
223.12
227.092
220.889
221.524
230.225
228.004
235.912
266.088
245.28
243.596
241.302
258.491
227.622
221.212
274.544
275.249
291.584
249.215
261.574
246.363
275.938
271.905
254.932
228.958
238.791
239.324
250.598
254.155
246.885
245.633
248.123
276.801
204.824
222.536
200.414
281.629
276.622
294.086
231.469
251.325
247.77
285.757
264.99
253.732
189.701
185.127
203.902
183.912
179.256
177.496
217.922
194.449
209.09
225.101
211.923
200.878
242.763
231.161
201.781
227.865
240.746
244.823
255.15
187.034
188.562
188.323
182.68
183.386
185.444
186.232
241.594
249.677
258.364
251.842
246.684
240.555
216.638
232.6
206.564
205.889
202.939
238.882
224.987
227.447
241.369
231.956
234.512
227.508
237.069
241.56
233.883
240.408
233.897
243.822
232.905
239.553
302.748
291.574
300.706
255.419
273.987
262.496
265.267
271.388
255.054
244.482
246.591
249.675
234.392
239.163
245.742
237.461
263.816
247.615
264.876
303.857
298.962
300.177
298.057
292.087
278.032
261.46
313.376
309.301
289.666
289.793
309.272
300.667
285.924
306.965
303.255
264.298
287.345
274.362
254.772
281.56
266.073
275.533
295.342
314.938
327.701
328.212
328.314
336.379
318.824
298.41
312.186
313.033
305.709
309.375
333.956
323.549
322.834
296.952
322.797
309.497
225.324
234.433
227.117
222.566
224.086
278.26
272.136
274.7
261.285
247.14
278.672
242.253
259.861
273.55
271.476
241.935
255.995
239.291
266.832
213.268
237.731
264.388
268.304
190.365
220.798
202.915
187.672
194.024
296.311
276.16
287.831
271.345
249.558
215.394
227.894
243.954
299.889
269.216
282.587
302.714
306.936
251.275
282.416
265.855
252.04
257.476
326.01
313.276
320.112
323.262
303.416
276.336
288.525
297.571
269.295
267.032
266.729
250.929
238.262
284.095
247.151
263.859
276.532
270.833
226.538
228.453
225.445
224.102
230.022
250.538
238.414
234.466
326.976
340.879
338.986
343.409
352.085
313.933
290.65
303.627
334.874
344.43
284.639
328.53
306.345
279.292
279.473
339.677
308.675
332.547
