# vtk DataFile Version 4.2
vtk output
ASCII
DATASET POLYDATA
POINTS 642 double
-181.321 331.132 33.5654
180.725 337.721 31.6497
-184.963 -284.439 48.9456
193.065 -291.32 49.5184
1.08542 -190.917 388.885
1.32409 187.027 347.157
1.71857 -137.686 -217.871
1.05066 234.448 -266.384
280.16 42.5009 -139.123
274.664 19.3154 241.63
-266.08 41.8775 -136.017
-261.926 20.8078 236.855
-247.179 194.298 123.211
-158.74 119.29 333.773
-82.7453 261.254 189.23
86.7534 265.005 193.47
1.25674 392.276 26.958
117.238 351.419 -140.754
-111.247 346.834 -138.139
-175.339 144.214 -248.764
-283.416 213.592 -59.8932
-286.74 30.6644 48.703
164.594 121.977 338.751
235.03 187.506 125.623
-177.747 -102.414 356.102
2.49847 20.0923 434.693
-260.238 -153.264 -47.6583
-259.439 -159.952 187.855
1.91628 41.5641 -318.354
-160.217 -54.1561 -232.577
285.21 219.406 -64.8757
180.494 146.414 -252.121
273.623 -164.717 190.206
185.917 -103.798 360.743
123.981 -299.715 264.44
-121.025 -297.224 262.712
0.534457 -333.621 49.0715
-111.092 -269.52 -119.123
116.511 -272.378 -121.237
165.822 -56.2729 -235.562
269.638 -161.67 -50.0224
299.327 20.8404 54.8743
-227.373 269.24 80.1417
-181.488 230.994 154.049
-142.051 316.755 102.803
-220.808 71.6716 294.025
-206.436 147.138 250.642
-252.517 97.6831 203.49
-45.5697 227.819 287.568
-126.114 196.208 284.745
-81.3764 159.171 352.099
-54.1082 349.622 101.311
-91.0974 380.476 28.7038
49.6212 229.057 288.079
2.21917 272.911 203.128
97.6076 384.251 28.8985
58.9222 350.791 100.708
141.876 321.407 101.16
-62.3556 402.036 -54.3037
-151.926 357.42 -51.2664
158.82 367.051 -53.6357
65.9021 404.111 -54.767
-58.7854 300.922 -213.375
1.1981 363.038 -149.188
61.9454 302.318 -214.625
-211.81 289.131 -104.746
-244.531 286.73 -13.8207
-94.4802 194.109 -270.693
-150.522 254.099 -202.165
-283.646 144.841 -96.5752
-243.624 191.962 -156.673
-233.931 91.264 -199.071
-282.768 216.038 33.1284
-275.668 55.9855 -43.781
-304.673 147.346 -14.94
-268.913 145.651 78.3548
-275.898 19.3035 154.623
172.599 232.241 158.82
228.924 272.578 78.4681
86.2113 160.424 354.977
131.149 198.818 288.403
263.978 97.0649 206.53
212.79 148.532 256.844
229.407 72.7885 298.949
-84.6907 75.5899 397.946
2.01221 111.02 401.66
-230.915 -43.6303 302.977
-175.027 20.4772 358.446
0.707322 -76.0251 422.489
-89.3119 -37.2657 409.276
-99.5291 -154.753 391.124
-279.433 -66.2431 112.207
-266.177 -78.8329 219.879
-255.928 -64.2045 -91.8108
-283.319 -74.0352 0.0291173
-227.368 -219.213 123.442
-269.611 -162.598 45.474
-235.026 -228.457 -3.94081
-181.603 39.5922 -258.03
-226.092 -8.2383 -191.342
1.52624 132.714 -311.053
-95.3269 95.6204 -304.368
-88.1946 -103.425 -239.759
-92.2841 -14.9556 -291.787
1.04804 -49.1767 -289.539
155.189 258.037 -205.955
97.3922 195.788 -272.725
245.785 289.717 -16.663
215.698 295.275 -107.493
244.498 90.6612 -203.742
245.904 194.452 -161.067
287.949 135.369 -101.487
239.921 -226.488 124.699
223.045 -244.913 227.557
164.354 -302.055 173.776
240.277 -44.5578 307.847
252.852 -143.286 282.571
282.056 -81.7289 222.421
68.8948 -259.363 345.995
166.48 -214.337 335.858
103.08 -157.782 392.537
66.1655 -336.684 178.862
106.966 -329.498 48.1198
-66.1622 -257.758 344.129
0.937212 -310.052 271.911
-101.774 -326.897 48.4889
-63.8188 -335.101 178.617
-157.714 -297.67 172.287
68.2702 -324.805 -41.4498
162.841 -298.357 -41.7
-156.146 -292.914 -39.8805
-65.1207 -324.593 -41.2986
63.8664 -220.332 -177.472
0.731733 -277.623 -125.542
-60.1847 -219.866 -177.597
210.17 -229.773 -93.5524
247.688 -235.069 -5.73548
91.4518 -105.711 -241.241
146.418 -188.926 -173.289
266.263 -61.5739 -92.3884
227.359 -127.9 -135.468
235.439 -9.17004 -195.746
280.081 -169.739 45.6749
287.492 47.855 -52.9504
297.435 -77.4874 -0.16955
291.213 -68.53 114.65
292.458 20.6855 160.17
92.4976 -35.2272 415.038
181.591 20.963 364.636
88.9861 75.8614 402.615
-212.659 -237.598 228.031
-161.908 -210.515 331.391
-241.165 -142.78 277.181
-140.248 -185.235 -169.937
-200.473 -224.381 -89.417
-221.336 -122.134 -132.295
188.171 39.5108 -261.952
94.6432 -15.2378 -293.701
97.0558 95.7303 -307.267
279.554 115.804 86.2419
303.448 145.964 -18.8971
282.084 221.595 31.4954
-207.984 301.758 58.1655
-187.705 296.282 93.2689
-162.231 326.787 71.5119
-217.631 215.287 140.992
-207.498 261.679 111.902
-241.213 233.539 99.6944
-116.523 302.333 128.695
-166.61 286.458 120.07
-133.455 245.558 169.341
-244.058 46.8646 267.311
-240.992 85.0033 249.746
-259.814 59.977 222.214
-186.069 134.295 294.42
-215.239 111.371 274.865
-192.183 96.0317 316.35
-240.802 149.561 159.771
-232.044 124.402 228.057
-220.94 166.288 192.483
-22.6755 210.045 318.626
-63.9156 197.098 322.269
-39.0998 174.611 352.363
-106.022 224.036 254.746
-87.1362 214.051 288.307
-65.8817 239.775 255.517
-121.409 140.638 345.82
-106.301 180.258 319.753
-143.515 161.145 311.946
-191.459 188.459 213.921
-169.303 173.947 270.099
-152.256 206.81 237.468
-116.846 350.053 68.4206
-134.784 358.028 30.5352
-71.4997 316.632 133.576
-95.5268 335.824 101.547
-50.0141 391.612 28.1539
-72.2625 368.783 66.9654
-30.6788 375.655 65.9674
25.7419 210.452 319.133
1.42523 231.887 291.398
46.5364 271.731 201.836
25.3639 248.77 259.611
70.8055 242.851 255.457
-21.3691 247.699 259.81
-40.3109 270.148 199.673
138.66 365.662 29.6481
120.54 356.312 67.8146
162.005 332.623 69.9771
33.8052 375.313 65.4095
78.1745 371.353 67.1242
54.0334 392.91 27.8904
116.218 303.541 131.421
99.184 340.466 100.995
75.5675 317.635 135.46
-25.0549 321.597 143.192
27.6804 320.988 143.688
0.712598 351.267 102.691
-122.155 376.103 -12.0823
-168.655 347.106 -9.03639
-31.8217 403.883 -12.8652
-77.7389 396.086 -13.1406
-133.3 357.055 -94.4791
-107.497 386.153 -54.9228
-88.6125 380.108 -96.6918
170.308 355.579 -12.0619
129.253 382.626 -12.7758
93.4358 383.511 -98.1606
114.477 390.979 -55.6914
140.411 363.547 -96.579
83.0425 399.267 -13.2217
34.9224 405.123 -13.065
-29.1969 270.091 -243.555
1.01048 304.605 -218.379
31.4996 270.683 -244.241
-59.6199 361.111 -148.029
-31.0151 335.986 -184.069
-86.2698 327.662 -177.576
91.0612 330.586 -179.351
33.4857 336.237 -184.119
63.1363 362.895 -148.732
1.41126 404.723 -55.1163
34.9753 390.509 -103.365
-32.0747 389.157 -102.807
-203.692 323.211 -31.8955
-215.819 311.747 9.24267
-162.314 320.293 -122.053
-184.119 325.622 -78.4458
-266.554 253.82 -36.6862
-231.457 290.425 -58.3413
-250.788 254.465 -83.4895
-48.0063 216.109 -270.97
-76.588 251.267 -245.177
-163.623 199.852 -227.559
-122.818 226.285 -239.517
-137.2 169.824 -263.627
-105.551 280.905 -210.956
-131.53 302.848 -172.519
-272.487 90.5225 -117.233
-260.6 117.004 -146.1
-254 65.2861 -167.688
-268.247 204.164 -111.617
-270.028 167.685 -127.408
-291.511 177.439 -80.8477
-207.61 118.004 -226.937
-236.946 143.623 -176.672
-207.81 167.996 -203.38
-184.891 275.635 -155.246
-200.865 224.12 -182.009
-231.435 242.2 -134.11
-239.211 281.47 33.8103
-289.531 218.683 -11.5385
-267.105 252.887 9.70861
-257.243 245.589 57.7659
-269.051 209.09 78.2274
-273.375 50.1616 -99.612
-283.91 105.37 -71.169
-295.332 111.409 3.15062
-298.355 115.584 -25.0499
-283.852 50.1759 8.59319
-299.706 149.094 -49.6682
-305.549 176.936 -36.0741
-267.498 59.9748 184.815
-271.971 20.9252 200.654
-266.159 171.799 101.346
-258.276 115.196 141.802
-284.624 18.816 97.7732
-271.464 68.4692 126.393
-280.833 87.7725 57.086
-303.609 179.725 7.26929
-297.14 151.301 21.7633
-289.475 181.196 52.9554
188.462 300.155 91.9267
209.234 305.46 57.8695
129.737 250.925 177.579
164.505 290.337 120.292
240.739 241.392 91.7039
207.263 267.923 106.759
209.066 211.63 141.057
42.8568 174.877 353.425
68.5095 198.179 323.93
149.24 163.988 316.29
111.571 182.394 323.006
126.609 142.813 350.031
92.1123 216.192 290.195
109.766 227.697 256.809
272.083 59.3695 224.996
250.674 86.0263 254.023
254.762 45.7484 271.95
226.947 158.861 205.913
240.293 124.343 232.975
250.239 135.661 181.063
199.174 98.574 321.496
223.116 113.795 279.892
192.761 137.288 299.428
153.859 209.135 244.818
174.727 176.335 275.484
194.13 185.738 226.304
-40.092 137.812 380.397
1.55961 152.01 376.517
-124.759 100.121 368.472
-84.6891 119.508 377.705
2.37823 65.6316 421.644
-41.1027 93.3592 404.406
-40.8657 48.057 421.089
-246.517 -12.1042 271.553
-228.118 19.5431 300.798
-177.749 -40.3517 359.035
-204.788 -11.9092 331.738
-208.801 -73.3702 332.224
-200.671 48.3068 328.481
-169.826 72.3636 349.404
-0.674757 -137.458 400.697
-50.9226 -120.446 404.697
-54.6085 -175.528 396.505
-41.432 -5.86615 430.327
-44.6148 -56.1948 420.97
2.40026 -23.0346 436.682
-141.346 -130.337 377.05
-97.1142 -98.1126 398.838
-137.295 -73.4237 385.765
-132.239 49.1338 382.814
-136.211 -8.99072 387.906
-87.0509 21.6502 411.279
-272.817 -23.3305 188.662
-265.981 -29.5109 227.716
-288.312 -19.5293 80.4258
-282.29 -20.3447 132.468
-263.497 -123.871 205.928
-269.597 -73.6108 174.138
-266.244 -114.663 155.295
-259.553 -0.25173 -124.198
-264.265 -8.23764 -71.1963
-275.315 -115.606 -23.2189
-274.254 -76.7094 -38.8329
-261.329 -115.09 -65.0433
-281.342 -22.7728 -12.7624
-287.582 -23.2909 26.9595
-208.426 -257.374 82.8866
-235.941 -229.819 47.8521
-213.171 -259.28 21.3065
-253.077 -162.077 117.332
-251.793 -194.858 79.7489
-248.457 -193.426 161.08
-249.987 -192.407 -26.8189
-255.639 -196.059 22.212
-269.614 -159.99 -0.317198
-284.675 -70.1658 48.0477
-280.987 -120.034 20.4806
-274.428 -115.441 76.1375
-234.086 39.9981 -199.433
-249.154 15.7652 -165.033
-181.875 91.6535 -258.026
-210.034 66.0821 -232.188
-196.677 -29.3489 -214.768
-206.158 14.5954 -227.62
-174.763 -9.13138 -248.322
1.14823 182.511 -290.682
-48.9766 165.095 -295.534
-47.6825 68.5057 -317.133
-48.6526 114.088 -311.63
2.04642 86.1084 -321.533
-97.246 143.744 -292.725
-138.435 121.885 -281.74
-50.0941 -120.679 -233.877
-45.4158 -73.5703 -271.962
1.41701 -84.9281 -266.2
-129.742 -37.1553 -265.314
-90.1545 -56.4989 -271.615
-123.474 -80.2437 -240.294
1.28346 -5.86991 -307.234
-47.2392 -32.8688 -294.4
-47.6569 11.6566 -308.852
-142.413 67.2595 -286.161
-95.597 39.3849 -304.19
-139.456 11.9879 -280.537
[...]
POINT_DATA 642
SCALARS Mean_Curvature double 1
LOOKUP_TABLE default
0.00793007
0.00641234
0.00755627
0.00787958
0.00223933
0.00949095
-0.00951183
0.00544558
0.00952124
0.00814973
0.0120422
0.00867467
0.00820971
0.00674505
-0.00195245
0.000444332
0.00245066
0.00824102
0.00753171
0.00692077
0.00542087
0.00578313
0.00698118
-0.00179996
0.00428366
0.0100482
0.00844074
0.0074782
0.00544105
0.00561061
0.0100476
0.00646215
0.00772739
0.00590442
0.00689653
0.0084348
0.000737643
0.00775175
0.00790504
0.00571971
0.00674213
0.00318328
0.0078966
-0.00232211
0.00810293
0.00696796
0.00575363
0.00565632
0.00637764
0.00642451
0.00665934
0.00643779
0.00817692
0.00570399
-0.000964073
0.00873663
0.0052993
0.00624542
0.0126458
0.00661453
0.0114894
0.0115585
0.00607953
0.00308285
0.00593376
0.00676736
0.0105093
0.00502767
0.00420578
0.00493956
0.00849751
0.00624709
0.00687548
-0.00479156
0.013787
-0.0087413
0.000787292
-0.00391419
0.00944263
0.00687449
0.00679013
0.00653605
0.00654582
0.00658463
0.00597619
0.00709275
0.00562449
0.00635792
0.0052493
0.00366971
0.00834054
0.00173683
0.00571038
0.00149467
0.00597358
-0.00550024
0.00773795
0.00841558
0.00852207
0.00645424
0.0054868
0.00750673
0.00396218
0.00793319
0.0059297
0.00456805
0.00479182
0.00801421
0.00608159
0.00659547
0.00606625
0.00210331
-0.00309054
0.00817677
0.00605082
0.00258535
0.00906705
0.00619137
0.00817261
0.00767049
0.00819567
0.00940384
0.00636182
0.00799713
-0.00141874
0.0063599
0.00931121
0.00760322
0.0060827
0.00808611
0.00801008
0.00807677
0.00454976
0.00109763
0.00667717
0.00740735
0.00845046
0.00376603
0.00649543
-0.000543951
0.00573862
0.00677671
0.00491193
-0.00398443
0.00808347
-0.000639171
0.00584201
0.00495937
0.00635844
0.00630661
0.00784011
0.00712108
0.00936955
0.00581499
0.0073044
0.00662867
0.00826945
0.00732656
0.00711377
-0.00103679
0.00936933
0.0106612
0.00775684
0.00847779
0.00711524
0.00318215
0.00726499
0.00658124
0.00193831
0.00638133
-0.00645291
0.00703779
0.00658429
0.0077382
0.00664404
0.00671195
0.00684085
-0.00271171
0.00561068
0.00454849
0.00648083
0.00657524
0.00601343
0.00410367
0.00688028
0.00532406
0.00675831
0.00694632
0.00664139
0.00449684
0.00631678
0.00480489
0.00544279
0.00465248
0.00220709
0.00430566
0.00916452
0.00833972
0.00669679
0.00622297
0.00755093
0.000958893
0.00595031
0.00578025
0.006096
0.00021339
0.00699317
0.00746368
0.00662623
0.00461438
0.00915906
0.00810401
0.00048436
0.00588314
0.00301758
0.00531248
0.00371656
0.00189312
0.00718487
0.00541914
0.00872619
0.00967035
0.0064312
0.0121757
0.00795859
0.00547333
0.00927246
0.0073375
0.0120593
0.00730719
0.00934312
0.00876438
0.00622035
0.00555225
0.00613978
0.00853144
0.00561157
0.00707309
0.00712391
0.00441003
0.00776674
0.00670541
0.00664138
0.00642967
0.00842414
0.00805623
0.00450676
0.00498504
0.00821276
0.00624425
0.00580854
0.00383596
0.00630403
0.00352032
0.00484494
0.00635056
0.00594784
0.00396771
0.00415252
0.00327274
0.00681771
0.00819729
0.00991152
0.0145219
0.00695703
0.00156979
0.00295216
0.00573158
0.0051021
0.00629534
0.00735246
0.009521
0.00785208
0.00705387
0.0093367
0.00527116
-0.000188037
0.00593466
0.00971388
-0.002634
0.00727407
0.0191949
0.00507456
0.00870278
0.0112268
0.000102067
0.00374893
-0.00010316
-0.00212109
0.0176644
0.0053033
0.0170635
0.00858501
0.00771728
-0.00274068
0.00589193
0.00856839
0.00704237
-0.00142019
0.00528778
0.00633262
0.00714688
0.00727846
0.00703199
0.00681831
0.00473632
0.0064352
0.00646606
0.0062995
0.00397692
0.0056422
0.0039205
0.00697444
0.00725935
0.0071836
0.00489488
0.00708785
0.00455469
0.00626283
0.00768109
0.00654459
0.00628331
0.00736316
0.00630561
0.00687793
0.00204392
0.00670582
0.00419171
0.00313804
0.00751059
0.00700299
0.00688762
-0.00146626
0.00215675
0.0107048
0.0100175
0.00418764
0.0112352
0.00626033
0.00323595
0.00553767
0.00620573
0.00513891
0.00688954
0.00245047
0.00544298
0.00568897
0.00476991
0.00379965
-0.000964306
0.00114687
0.00503225
-0.00477592
0.00711096
0.00392076
0.00495544
0.00284678
0.00475768
0.00465294
0.00692066
0.00768712
-0.00649382
0.00889561
0.0114239
0.00666704
0.006439
0.0085195
0.00317929
0.00846436
0.00166669
0.00813478
0.00724276
0.00790233
0.00725668
0.00621552
0.00760897
0.00768927
0.00269286
0.005682
0.00763886
0.00614798
0.00866642
0.00733588
0.00813219
0.000443986
0.00649354
0.0037732
0.00748322
0.00639606
0.00634371
0.00519172
0.00709177
0.00585712
0.00764403
0.00758803
0.00818762
0.00601157
0.00368711
0.00533481
0.00564382
0.00589491
0.00553126
0.00424688
0.00692354
0.0059451
0.00773844
0.00723298
0.00597206
0.00643953
0.00572937
0.0099225
0.00439949
0.00865726
0.00317533
0.00305914
0.00632088
0.00850811
0.00523516
0.00910827
0.0050932
0.00697143
0.00550759
0.00432324
0.00301979
0.00231691
0.0118945
0.0081524
0.00833689
0.00980652
0.0117753
0.00578366
0.00478998
0.00575185
0.00495856
0.00721566
0.00683325
0.00688421
0.00622046
0.00970227
0.0115673
0.00908096
0.00922722
0.0102348
0.00768433
0.00795632
0.00816315
0.00568399
0.0092964
0.00746539
0.00661876
0.00683684
0.00702593
0.0013181
0.00684582
0.00879018
0.00590042
0.00443708
-0.000634898
-0.00239854
0.00998287
-0.000871455
0.00615778
0.00945674
0.00762398
0.00874504
0.00607361
0.0064484
0.00127131
0.00116912
-0.00195046
0.000655531
0.00575087
0.00651
0.00654831
0.00928152
0.0118069
0.0124059
0.000539875
0.00861663
0.00826133
0.00601241
0.00831579
0.00793375
0.00862185
0.00816185
0.00827161
0.00841498
0.00802164
0.00827966
0.00792475
0.00922195
0.00557038
0.00462602
-0.000861098
0.00488369
0.00600305
0.00675863
0.00803985
0.00754608
0.00681099
0.0079209
0.00263491
0.00646167
0.00661378
0.00796081
0.00750727
0.00736095
0.00782843
0.0101634
0.00787209
0.00856674
0.00108221
0.00573455
-0.00591113
0.00785499
0.00642535
0.00686533
0.00764948
0.00753171
0.00582522
0.00659275
0.0066444
0.00140003
0.00448797
0.00630673
0.00474239
-0.00562743
0.00752592
0.00727008
0.00852577
0.00712785
0.00315991
0.0107006
0.00931777
-0.00732248
0.0106489
-0.00275363
0.00424943
0.000899764
0.00203694
0.00265244
0.00952788
0.00473663
0.00836683
0.00179182
0.00144585
0.0019335
0.000295031
0.0108194
0.0116381
0.00152011
0.00216947
-0.00146268
0.00280404
0.00250653
0.00628773
0.0114469
0.00615313
0.00634015
0.00575345
0.00583557
0.00333564
0.00591297
0.00755639
0.00661763
0.00632657
0.00654326
0.00659533
0.00612078
0.00769254
0.00628739
0.0093316
0.00632353
0.00707276
0.00784965
0.00788575
0.00903702
0.0081635
0.00779088
0.00738802
0.00739995
0.0125263
0.00796108
0.0044396
0.00624794
0.00725579
0.00817823
0.00926733
0.00705133
0.00759972
0.00614572
0.0065535
-0.00462607
0.00800641
0.00647347
0.00802484
0.00782895
0.00739188
0.00690505
-0.00547952
0.00523804
0.00329976
0.00784156
0.00709756
0.00664882
0.00647715
0.00807565
0.00744807
0.00724751
0.00884317
0.00733793
0.00641407
0.00608932
0.00688744
0.00608138
0.00731181
0.00566534
0.00757721
0.00667723
0.007156
0.00991874
0.00773723
0.00677843
0.00778775
0.00813606
0.00431515
0.00115632
0.00278645
-0.00310738
0.00628748
0.00763014
0.0113345
0.00256685
-0.00646899
0.00821694
0.00804272
0.00945677
0.00910017
0.0105846
0.0108895
0.0109476
0.0056367
SCALARS CoVolArea double 1
LOOKUP_TABLE default
1810.93
1854.56
2067.09
2131.4
2414.32
1579.9
2995.29
2292.2
1447.15
1743.84
1519.64
1639
2175.88
2106.43
3602.74
3207.09
2440.7
2721.51
2695.58
2582.31
2273.26
2770.96
2178.1
2964.51
2687.17
2203.04
2002.83
2220.34
2522.64
2791.35
2185.33
2701.69
2316.36
2837.23
2973.95
2839.97
3560.83
2286.74
2351.24
2917.5
2119.31
2827.43
1777.22
3225.64
1804.99
1940.4
2224.37
2261.26
1731.66
2013.12
2038.1
2191.29
2052.06
1801.93
3213.47
2020.05
2280.62
1846.43
2531.4
2402.36
2292.04
2621.86
2650.47
3119.68
2716.15
2778.55
2051.4
2670.43
3018.86
2044.29
2640.97
2350.12
1904.54
3475.82
1256.14
3018.63
2378.21
3662.9
1627.82
2076.22
1975.49
1915.55
2084.99
2084.19
2505.63
2188.68
2352.58
2612.71
3113.27
3032.91
2598.19
3102.26
2080.73
2706.1
2115.04
2975.89
2459.57
2049.06
2320.76
2079.91
2647.42
2600
2506.7
2397.91
2224.6
3039.31
2725.05
2249.22
2837.55
2333.27
2757.46
2279.12
3086.4
2746.19
2689.05
2507.26
2576.63
2088.41
2910.22
3017.89
2693.17
3030.93
2833.15
2880.39
3409.43
2742.24
2965.57
2653.21
2722.84
2319.85
2230.72
2631.64
2365.14
2825.53
2259.25
2434.6
2151.62
2525.18
2662.95
3052.3
2743.78
2179.61
2677.25
2980.44
2096.56
3318.83
2132.71
2992.17
2678.43
2520.93
2567
2927.56
2344.34
2645.44
2342.57
2663.89
2415.52
2478.55
2636.31
3364.78
1960
1762.64
1918.53
1706.33
2003.34
2578.52
2016.81
1856.94
2752.5
2417.93
3943.94
1950.45
1838.36
1665.58
2068.83
1868.35
1910.73
2560.39
2194.51
2602.13
1815.74
1919.34
1950.36
2882.14
1767.34
2323.12
1976.74
1892.67
2071.59
2927.5
2391.13
3199.05
2067.32
2238.76
2828.34
1916.63
2017.83
1921.64
2338.76
1858.62
1745.32
3150.76
2288.37
2248.6
2270.44
3211.64
2116.97
1952.47
2000.89
2400.61
1911.04
2100.39
2655.25
1900.33
2788.69
3167.58
3260.89
2764.58
2241.69
2295.17
2469.86
2054.52
2457.85
2216.39
2648.91
2243.82
2155.38
2748.46
2261.77
2445.95
2133.54
2514.95
2639.06
2782.5
2668.7
2856.79
2769.78
2543.07
2600.54
2818.33
2930.78
3089.38
3335.57
3289.51
2344.54
2060.59
2907.49
2577.25
2141.17
2367.28
2619.14
2741
2689.9
2954.7
2707.62
2498.31
2674.94
2930.29
2176.3
2445.8
2113.3
2394.91
2100.66
1738.32
2351.94
2554.31
2886.27
3251.14
3260.6
2993.08
1954.64
2044.86
1979.44
1902.51
1825.08
2508.08
2390.44
2177.61
2035.85
2890.79
1575.55
1687.7
2264.1
1825.41
2127.02
2891.92
2755.65
3457.83
3581.14
1676
2144.53
1827.18
1716.87
2004.21
3703.53
2578.7
1994.7
2260.29
3218.24
2002.51
1974.56
2081.28
1911.26
2011.42
1802.34
2664.7
1817.54
1962.29
2063.1
2769.93
1962.06
2616.8
2028.26
1927.94
2084.1
3178.09
2281.77
3177.66
2159.56
2019.52
2354.74
2184.53
2171.51
2256.47
2422.93
2259.79
2244.22
2822.92
2446.58
2416.19
2161.82
2315.3
3177.73
3034.07
2710.93
2537.83
2857.25
2311.65
2549.38
2904.64
3007.85
2861.42
3186.17
2973.29
2293.03
2092.86
2574.77
2548.71
1912.29
2612.27
3064.12
2288.23
3504.11
1889.34
2539.23
2031.01
3193.61
2607.97
2803.98
2455.76
2184.05
3099.81
2557.35
2392.45
1979.62
2045.4
1978.85
2753.77
2299.18
3336.22
2020.21
1844.5
2407.24
2114.42
2348.48
1994.01
2189.34
2829.61
2755.06
2601.45
2510.02
2344.4
2509.78
2541.23
3016.01
2418.54
2874.1
2245.55
2195.43
2432.73
2369.8
2247.83
2591.16
2782.43
2841.89
2655.65
2747.44
2771.47
2925.2
2717.63
2579.98
2742.45
2990.82
2232.99
2393.98
2546.57
2427.64
2164.58
2523.94
2893.01
2005.64
2508.36
1971.31
2955.31
2668.25
2443.31
1993.58
2460.13
2430.58
3327.98
3064.5
3313.64
2961.11
2927.85
2966.01
2301.87
2421.08
2489.48
2491.99
2376.42
2980.18
2370.13
2335.84
2212.27
2681.79
2342.53
2485.87
1930.63
2035.44
2205.99
2817.41
2650.11
2778.55
3091.6
2804.87
2801.44
2700.36
2632.34
2835.92
3118.39
3238.52
3434.68
3235.76
2676.68
2785.78
2788.5
3055.1
3344.15
3978.51
2820.9
3139.54
3120.35
3058.72
2758.65
3075.35
3171.91
2648.39
3181.15
2894.6
3914.17
3201.28
2934.57
2412.74
2698.84
2676.11
3287.89
3256.77
3596.6
2333.01
2284.01
2901.9
2366.46
2254.47
2312.26
2545.96
2173.46
2270.96
2461.55
2247.07
2183.65
2292.34
2844.41
2922.51
2610.87
2875.75
2596.48
2482.73
2146.12
2084.03
2430.02
2509.35
3270.11
3128.51
3193.99
2317.89
2319.88
2461.38
2310.48
1985.81
2213.46
2236.17
3002.18
2498.32
3590.01
2581.72
2518.24
2215.94
2334.44
2285.36
2479.43
1935.32
2290.12
2649.14
2392.32
2455.6
2698.84
3671.1
2625.84
3281.45
2535.72
2549.27
2162.44
2067.63
2651
3302.25
2101.31
3236.16
2524.54
3023.45
3177.52
2659.19
2087.02
2277.46
1868.89
3175.83
2615.18
2464.63
2707.68
2577.29
2532.94
2806.94
3629.67
3256.68
3210.11
3065.46
2886.85
2440.41
2360.55
2433.82
2277.19
2515.63
2977.67
2192.51
2399.23
2256.19
2214.86
2427.12
3242.21
2893.12
2904.57
2813.28
2792.32
2372.03
2407.51
2190.05
2670.46
2699.44
2606.51
2784.27
2973.89
2214.89
1976.64
1938.57
2284.35
2585.13
3176.52
3002.78
2776.87
2458.11
2289
2188.86
2571.07
3479.9
2178.29
2233.73
2103.26
2190.61
2366.33
2218.34
3550.99
2559.05
2292.68
2187.59
2574.25
2528.84
3245.1
2081.99
2297.65
2091
2190.68
2532.47
2438.4
2577.64
2286.75
2267.02
2346.73
2770.38
2673.89
2575.71
2479.04
2537.09
2775.27
2887.04
2891.28
1866.84
3184.09
2742.33
2804.85
3402.06
2112.81
1890.46
1867.77
2496.89
3122.81
2022.36
2283.33
1637.81
1980.05
2080.53
2595.32
1864.51
2518.29
SCALARS SignedDistance double 1
LOOKUP_TABLE default
163.775
161.784
138.861
129.33
118.233
168.778
182.605
124.832
171.809
167.985
186.116
180.401
221.089
166.581
204.739
202.858
163.061
112.761
120.641
135.811
154.091
199.524
160.087
201.294
135.353
130.027
170.492
176.997
133.909
167.198
155.761
128.757
164.085
128.266
104.377
109.576
138.782
138.665
136.145
162.602
161.155
184.907
186.017
212.561
191.975
171.509
190.794
197.34
185.372
186.321
166.172
187.35
164.561
182.545
203.91
160.702
185.31
189.735
129.761
138.51
133.785
128.696
119.033
117.756
116.843
129.581
152.131
125.615
130.249
180.885
154.966
157.052
182.664
204.714
199.901
214.833
192.744
199.42
183.115
162.564
180.627
184.495
182.603
163.317
146.644
148.339
161.427
149.867
123.696
131.758
120.372
181.16
180.533
190.947
185.535
171.665
172.733
150.947
146.235
173.348
122.839
126.292
178.308
146.625
154.292
124.088
122.89
148.028
124.441
143.119
146.739
174.896
162.563
130.76
139.975
147.661
140.804
167.722
95.1151
105.034
118.684
137.34
127.266
96.0351
112.798
128.518
137.419
144.353
127.981
121.817
129.399
127.719
160.934
150.404
160.881
140.108
139.524
176.622
158.942
177.893
172.09
163.854
163.58
192.661
182.796
174.159
181.635
125.865
143.496
142.369
142.789
113.159
156.016
161.704
148.942
179.632
138.967
144.159
123.568
194.357
188.933
180.961
174.231
187.539
178.699
217.334
198.146
199.638
201.14
198.12
205.337
175.888
183.947
188.33
178.026
180.476
168.442
211.004
194.368
210.126
177.264
176.535
167.315
193.526
186.03
192.539
165.909
176.333
176.529
205.834
188.502
198.831
181.131
165.863
197.603
192.033
161.304
178.051
174.423
176.224
183.926
203.194
190.06
189.042
190.62
203.886
163.074
178.044
177.209
175.269
175.573
160.793
197.342
188.43
195.209
195.448
193.755
182.11
151.356
149.36
145.804
146.697
125.403
134.423
116.883
147.278
145.754
110.632
127.574
116.522
143.45
149.337
120.693
116.838
119.719
113.193
116.45
119.852
115.073
117.332
112.548
134.591
118.215
113.542
141.137
156.066
125.939
130.092
149.453
135.655
138.19
124.768
123.196
135.562
128.754
129.106
124.266
126.125
186.689
174.512
170.213
153.873
169.842
173.528
145.273
161.332
149.119
128.271
138.449
136.308
168.022
168.979
165.541
182.793
199.899
193.411
194.607
212.702
205.357
203.095
188.466
185.26
196.018
189.433
221.743
205.401
194.452
197.232
208.268
195.428
205.257
205.585
184.823
171.95
200.364
195.612
192.283
192.243
201.546
165.928
173.634
170.765
171.747
160.509
181.502
187.871
175.949
174.884
165.671
192.301
183.825
194.171
161.034
173.172
171.399
189.588
181.529
191.708
157.287
158.436
156.068
155.797
138.825
146.987
138.036
167.584
164.363
146.557
153.282
149.245
160.411
157.724
128.252
128.692
120.214
129.24
126.787
119.51
126.912
127.429
134.57
147.248
139.739
138.303
187.41
180.1
189.695
188.665
177.846
183.743
181.433
194.35
194.24
179.079
184.581
178.731
192.969
191.167
152.266
155.641
143.396
178.167
169.855
178.382
159.177
161.353
169.14
185.143
181.245
180.145
164.162
178.693
139.079
149.446
168.367
158.881
156.342
125.099
123.402
130.351
124.136
125.263
123.285
127.386
181.79
162.33
165.845
156.726
159.11
171.74
142.413
149.232
138.07
132.854
133.529
144.234
120.65
124
120.784
119.677
124.279
123.19
128.898
152.923
138.737
135.237
135.03
146.852
126.763
120.235
158.073
158.138
172.179
139.611
148.08
135.057
162.486
159.099
147.694
122.873
130.626
132.727
141.602
154.964
146.18
152.17
150.568
166.512
121.466
135.552
112.419
156.566
158.429
166.051
131.621
144.293
140.185
165.836
158.193
156.172
109.201
103.643
120.366
98.9373
95.9575
94.8433
121.383
109.945
117.14
132.276
119.039
112.253
142.632
125.863
120.204
134.341
131.984
144.784
153.382
105.291
104.806
103.884
101.031
98.039
105.207
103.311
131.728
145.675
152.876
148.186
144.586
131.382
125.308
136.13
121.703
127.698
123.754
142.659
121.361
122.573
134.422
129.184
126.94
122.498
130.605
131.689
126.056
130.046
125.355
132.165
127.694
131.224
179.885
170.212
176.711
142.603
157.808
149.168
148.081
153.734
142.237
135.683
135.285
140.847
127.166
131.579
134.843
128.912
151.11
137.488
150.55
180.785
180.717
176.868
182.052
168.907
158.975
146.629
182.876
182.681
166.487
164.879
175.872
169.163
161.438
182.344
176.761
148.632
164.93
156.996
143.888
158.125
154.071
158.33
166.425
184.299
186.066
181.817
179.509
185.532
176.251
171.844
175.138
176.185
168.546
172.035
182.786
178.869
179.331
171.948
178.75
173.688
125.434
128.371
125.678
121.692
125.376
155.156
150.311
152.186
144.664
135.26
156.109
135.374
145.448
151.728
150.089
133.455
141.323
132.754
162.4
125.418
140.048
158.604
162.051
105.43
127.715
113.443
101.477
106.226
170.853
170.732
171.689
155.512
143.519
123.715
132.865
147.991
179.499
150.065
159.792
181.843
180.286
138.186
158.478
148.543
138.107
141.471
195.436
184.124
191.971
186.983
173.964
154.071
162.269
168.274
153.131
150.146
150.287
140.032
129.92
161.466
137.085
148.027
156.843
152.924
122.851
122.912
121.295
120.843
128.19
139.63
131.631
128.136
183.893
188.044
185.31
190.631
198.101
186.476
172.619
183.219
195.58
198.368
166.278
191.877
180.577
164.333
166.95
202.258
185.286
193.912
