# vtk DataFile Version 4.2
vtk output
ASCII
DATASET POLYDATA
POINTS 642 double
-219.239 389.05 46.5653
219.936 393.244 45.7776
-222.573 -335.131 51.7781
226.944 -339.986 52.1294
0.598722 -210.533 436.425
0.523609 237.726 404.407
0.732919 -179.542 -286.334
0.418466 262.419 -317.27
347.758 34.7998 -168.205
343.558 26.3049 273.065
-339.77 34.6399 -164.72
-335.642 26.5097 269.242
-315.849 230.3 164.085
-200.782 151.212 387.701
-114.555 334.967 237.627
116.293 337.753 239.987
0.584528 459.343 44.6873
136.175 392.471 -168.32
-133.389 389.45 -166.502
-211.629 163.392 -295.648
-338.75 243.581 -77.636
-377.482 31.85 50.9603
204.022 152.84 391.252
309.803 227.243 164.72
-213.973 -110.672 405.458
0.8959 27.0234 493.1
-326.655 -179.464 -71.5337
-331.511 -184.026 193.676
0.745113 34.6884 -379.529
-202.127 -88.3241 -283.928
342.353 246.408 -80.2085
214.284 164.753 -298.107
340.649 -188.368 195.257
218.005 -111.89 408.762
140.424 -339.051 285.025
-138.993 -337.188 283.509
0.289493 -396.896 51.9556
-131.438 -317.004 -156.341
133.919 -319.268 -157.887
205.065 -89.7853 -286.272
334.057 -185.426 -74.0817
385.7 27.4042 53.997
-281.461 318.738 109.587
-227.954 294.147 206.03
-174.372 380.394 145.72
-280.331 91.2392 339.298
-267.187 191.067 290.068
-331.248 126.561 229.025
-61.3902 295.858 335.43
-164.431 255.154 330.955
-103.942 201.555 410.1
-66.6582 419.051 145.397
-113.928 443.4 45.0105
62.9992 296.554 336.003
0.677067 351.087 251.247
116.866 446.276 45.2015
68.6327 420.136 145.201
175.013 383.479 145.311
-72.1293 454.071 -64.4884
-184.603 407.814 -61.7834
188.863 413.82 -63.2458
73.5692 455.722 -64.9118
-69.647 337.759 -254.26
0.517386 408.539 -179.01
70.9513 338.73 -255.137
-250.835 328.854 -129.555
-293.057 330.645 -17.6075
-111.733 219.543 -321.196
-180.57 286.764 -243.793
-354.379 146.691 -126.227
-290.436 213.725 -195.008
-289.54 99.4697 -240.548
-347.812 250.36 46.6104
-366.306 42.0229 -58.6834
-387.189 146.739 -17.3507
-362.629 146.685 107.098
-364.57 26.1962 167.239
224.319 292.848 206.515
282.76 320.53 109.422
106.054 202.527 412.194
167.191 257.151 333.475
337.809 127.544 231.261
271.47 192.942 293.558
285.405 92.0056 342.933
-107.438 94.6489 458.37
0.793038 139.696 462.989
-288.841 -44.0522 346.717
-216.941 26.5192 412.721
0.176092 -91.1847 477
-110.39 -42.8645 466.133
-115.702 -169.359 440.479
-363.186 -79.3838 121.876
-345.088 -85.7438 238.769
-334.193 -77.1073 -120.838
-367.641 -81.7092 -11.6149
-283.244 -263.23 127.142
-341.19 -190.2 50.8476
-288.469 -268.886 -14.0809
-221.075 33.94 -309.993
-283.929 -29.1957 -235.215
0.596997 149.499 -366.501
-112.825 102.982 -360.263
-106.663 -141.769 -300.787
-110.812 -33.8708 -351.947
0.419607 -78.0022 -352.243
183.182 289.325 -246.383
113.057 220.548 -322.755
294.055 332.477 -19.1715
253.617 332.757 -131.491
295.07 99.64 -243.865
293.307 215.986 -198.268
355.837 144.81 -128.407
289.928 -267.776 128.342
259.522 -278.836 245.768
191.906 -352.657 177.16
293.528 -44.776 349.968
299.616 -160.533 314.382
354.641 -87.639 241.745
74.8585 -289.872 377.789
191.315 -239.419 368.573
117.268 -171.251 442.308
73.6604 -393.454 180.129
120.431 -387.273 51.3027
-73.7058 -288.71 376.541
0.439102 -353.992 295.018
-118.102 -384.996 51.496
-72.7139 -392.249 179.991
-188.187 -348.609 176.603
73.6021 -381.808 -58.8061
188.863 -346.803 -58.528
-185.442 -342.912 -57.2896
-72.2528 -381.413 -58.7161
70.053 -262.564 -234.193
0.383818 -330.677 -165.688
-68.5473 -262.223 -233.991
250.052 -267.497 -125.078
295.534 -273.832 -15.3113
108.107 -143.183 -302.063
176.833 -220.461 -228.574
340.034 -76.4386 -121.599
281.916 -149.883 -184.332
289.305 -30.1366 -238.547
349.15 -195.672 50.9011
374.759 38.3379 -62.7996
379.56 -83.8398 -12.5653
371.668 -80.9207 123
375.68 26.7371 170.269
112.095 -42.3524 469.732
220.794 27.0214 417.22
109.524 95.0377 461.578
-255.772 -275.639 245.688
-188.835 -236.982 365.668
-294.198 -159.396 311.226
-173.566 -217.994 -225.818
-244.713 -263.473 -122.242
-277.437 -146.407 -181.489
224.392 33.8899 -312.96
111.853 -34.0223 -353.358
113.736 103.137 -362.114
361.127 135.385 109.879
383.676 148.171 -19.5132
349.063 252.127 46.3256
-253.887 356.474 79.0885
-231.215 353.871 129.183
-198.36 388.569 98.2854
-275.593 266.304 187.66
-257.822 313.033 157.837
-302.225 276.606 137.246
-146.769 365.789 185.519
-205.078 343.945 173.465
-172.413 315.348 221.038
-311.287 59.396 306.678
-310.545 110.071 286.102
-336.726 77.9519 250.885
-237.856 173.007 341.679
-276.318 143.352 317.345
-243.225 122.069 366.516
-320.954 179.594 194.734
-302.357 160.673 261.443
-290.173 209.435 229.424
-31.1005 269.758 372.226
-83.3468 252.716 376.351
-51.6936 221.554 410.689
-140.769 295.383 294.099
-114.428 278.248 335.886
-89.2389 314.987 295.777
-153.979 177.959 402.357
-136.677 231.083 372.927
-184.45 206.536 362.916
-248.285 244.214 253.686
-219.114 225.993 313.826
-197.006 272.974 276.744
-145.818 415.466 97.4988
-166.901 419.153 45.4736
-93.2286 384.338 187.736
-120.297 403.375 146.315
-59.1239 456.762 44.9472
-90.291 436.1 97.6105
-35.2808 444.829 97.0108
32.2939 270.015 372.612
0.506769 300.29 340.055
59.7299 348.151 248.99
31.6678 324.884 301.392
91.3588 316.782 296.276
-30.2325 324.306 301.321
-57.3251 346.924 247.804
169.841 424.377 45.2686
148.3 419.756 97.7286
199.114 392.326 98.02
36.6571 445.36 97.0665
92.6829 438.152 97.9739
60.6549 457.844 44.997
146.99 367.219 186.449
122.32 406.455 146.449
95.1746 385.579 188.627
-32.5425 392.174 195.273
33.5059 391.645 195.171
0.418608 422.095 146.043
-151.31 433.013 -8.91993
-203.939 402.091 -7.5886
-36.5032 464.546 -9.55027
-94.5458 454.886 -9.67307
-160.854 402.911 -115.174
-130.058 436.613 -64.9628
-104.538 427.147 -117.467
206.54 407.795 -8.94405
155.09 437.566 -9.31057
106.564 429.459 -118.489
133.076 439.86 -65.685
164.431 407.088 -116.846
96.7023 457.21 -9.85531
37.7433 465.489 -9.67823
-34.914 302.714 -289.504
0.413232 342.006 -259.108
35.8371 303.085 -289.955
-68.9715 405.005 -176.811
-35.765 377.339 -219.721
-102.737 367.366 -212.99
104.778 369.319 -214.329
36.789 377.703 -219.925
70.4178 406.372 -177.523
0.571328 458.492 -65.7908
37.8009 438.506 -124.558
-36.6053 437.547 -124.146
-242.487 371.677 -39.9999
-259.15 363.37 14.1509
-193.982 362.394 -149.546
-219.733 370.972 -97.109
-319.185 289.911 -48.3181
-275.016 332.508 -74.2794
-299.156 289.53 -105.369
-56.5471 242.96 -322.493
-91.4163 281.981 -291.917
-197.623 226.587 -272.79
-147.571 255.543 -285.908
-163.835 192.826 -312.416
-126.827 315.666 -252.402
-158.481 341.291 -208.362
-347.419 90.3898 -145.921
-323.435 123.682 -183.177
-318.266 66.5903 -204.452
-319.229 230.659 -139.285
-328.321 181.443 -163.211
-353.108 195.042 -105.254
-253.735 132.093 -271.406
-290.49 157.844 -218.557
-252.035 189.466 -247.361
-219.101 311.856 -189.545
-239.254 252.649 -222.86
-274.737 274.331 -165.876
-291.549 329.116 46.8394
-349.951 251.234 -14.987
-324.881 292.703 14.5558
-318.124 287.565 78.8103
-336.224 243.335 107.022
-357.237 39.2243 -115.261
-366.015 95.3514 -92.5104
-384.836 100.307 11.0297
-382.276 100.9 -37.0437
-372.867 40.2872 -1.84349
-375.2 148.164 -70.9511
-371.497 194.85 -48.4334
-353.41 77.527 201.603
-354.937 26.516 220.171
-349.491 189.332 136.973
-345.727 135.064 166.406
-373.763 25.7396 108.42
-360.91 82.5877 140.815
-369.236 91.6654 76.4862
-375.764 199.206 14.0132
-382.92 149.99 42.2748
-367.162 197.372 78.2553
231.947 356.216 128.917
254.893 358.946 79.0777
171.61 318.334 224.61
204.548 346.393 173.053
302.539 279.43 134.242
258.192 315.681 155.318
271.907 263.174 186.71
53.2087 221.876 411.523
85.2866 253.574 377.656
187.587 208.558 365.999
139.203 232.676 375.305
156.588 179.404 405.38
116.712 279.723 337.456
142.753 297.588 295.832
344.107 78.1488 253.778
316.547 111.188 289.319
317.698 59.2216 310.268
293.359 207.242 235.221
307.642 161.981 264.441
325.207 175.685 204.008
247.282 123.525 370.22
281.22 145.162 320.801
241.857 175.115 345.137
198.536 274.381 280.837
222.571 228.143 317.048
250.528 243.528 259.482
-52.5646 173.316 441.223
0.632727 191.331 436.8
-156.872 125.108 426.895
-107.204 150.066 437.832
0.896754 84.1499 482.191
-53.7219 117.755 465.659
-54.0588 61.5425 481.206
-313.303 -9.35839 309.271
-287.211 25.966 345.713
-217.887 -41.9417 412.556
-254.36 -9.27982 381.558
-255.078 -78.0697 379.172
-251.655 60.3521 379.053
-211.991 90.8713 404.511
-0.194468 -153.233 457.606
-58.2213 -133.529 461.442
-60.1637 -193.08 444.926
-54.8003 -7.26369 487.5
-56.0808 -67.3382 476.904
0.867101 -30.0622 491.454
-167.635 -141.888 427.375
-114.585 -107.575 454.442
-164.939 -79.4092 440.013
-164.748 61.3693 440.962
-167.344 -8.40743 444.623
-110.259 27.3883 469.967
-357.737 -27.2875 204.459
-341.881 -30.2065 254.426
-375.836 -24.2707 86.3224
-368.134 -24.7957 144.958
-342.148 -137.316 217.967
-354.169 -84.1017 184.339
-349.15 -132.651 161.007
-338.59 -16.7575 -148.307
-349.312 -18.2142 -90.6468
-353.216 -132.386 -42.2226
-354.924 -83.6648 -63.5523
-334.877 -131.569 -95.5844
-368.33 -25.5353 -31.4793
-375.495 -26.3981 20.8554
-256.083 -303.859 88.8034
-290.941 -271.675 51.4763
-258.691 -305.428 18.2051
-330.681 -186.585 123.053
-316.933 -230.223 87.517
-313.545 -228.677 163.763
-310.851 -226.636 -44.1371
-319.014 -231.637 18.8714
-338.668 -187.788 -10.5525
-370.05 -81.2557 51.3561
-361.299 -138.128 18.2698
-356.024 -135.823 86.1302
-291.558 34.0858 -242.379
-315.155 2.21588 -202.357
-219.949 99.1387 -308.038
-258.077 67.4177 -278.99
-246.051 -58.6656 -262.814
-255.574 1.16876 -275.954
-215.365 -29.3763 -301.215
0.468166 206.367 -344.445
-57.0161 186.613 -349.137
-56.8667 69.1946 -376.19
-57.303 126.663 -367.866
0.770488 91.932 -379.008
-114.14 161.694 -345.581
-165.055 135.101 -333.352
-55.5586 -161.91 -297.569
-54.526 -110.475 -333.013
0.570964 -126.756 -327.097
-159.755 -63.6723 -322.366
-109.74 -88.2685 -331.444
-155.43 -116.805 -296.536
0.543544 -22.9758 -369.801
-56.0969 -56.7547 -356.432
-56.4462 -0.576885 -370.433
-170.365 68.5197 -340.709
-113.662 33.9399 -362.655
-168.612 -0.440321 -337.068
[...]
POINT_DATA 642
SCALARS Mean_Curvature double 1
LOOKUP_TABLE default
0.00566082
0.00513434
0.00612585
0.00612316
0.00247668
0.00662399
-0.003509
0.00518712
0.00644599
0.0061691
0.00685097
0.00584211
0.00394032
0.00511769
-0.00129266
-1.3243e-06
0.00352305
0.00573073
0.00562761
0.00523613
0.00385867
0.00377153
0.00515721
0.000505079
0.00387809
0.00691447
0.00508326
0.00631588
0.00508241
0.00542169
0.00600904
0.00503674
0.00743881
0.00450367
0.00537519
0.00548343
0.00238223
0.00548313
0.00553059
0.00534671
0.00634628
0.00437518
0.00560041
0.000356767
0.00556906
0.00523383
0.00470275
0.00473539
0.00507294
0.00510534
0.00503896
0.00565697
0.00600534
0.00476191
-0.000114345
0.0059693
0.00535407
0.00550217
0.00687781
0.00536304
0.00697007
0.00668908
0.0048678
0.00355187
0.00477823
0.00502424
0.00659343
0.0042913
0.0040927
0.00596101
0.00508812
0.00521541
0.00480599
0.000166903
0.00990558
0.00200291
0.00289557
-0.00247661
0.00601747
0.00510675
0.00531357
0.00480011
0.00521651
0.004969
0.00487448
0.00530667
0.00566858
0.00481516
0.00372082
0.00331335
0.00630405
0.00105925
0.00608769
0.00200467
0.00472216
-0.00290119
0.00537157
0.00572365
0.00587431
0.00530307
0.00465701
0.0054857
0.00329326
0.00566066
0.00481882
0.004209
0.00423686
0.00523163
0.00463573
0.00484349
0.00539403
0.0034295
-0.00298912
0.00425514
0.00646563
0.00328925
0.00586663
0.00621224
0.00569508
0.00552518
0.0069954
0.00875686
0.00541664
0.00561133
0.00157271
0.00531395
0.00880398
0.00637753
0.00491248
0.00561779
0.00559293
0.00585527
0.00462225
0.00249824
0.00558799
0.00534763
0.0056145
0.0031412
0.00554175
0.000207924
0.00527778
0.00529885
0.00578255
0.00201958
0.00903058
0.000486569
0.00553593
0.00401653
0.00515858
0.00505911
0.00654418
0.00530049
0.00690829
0.00534371
0.00538721
0.00554296
0.00579476
0.00541664
0.0052499
-0.00186035
0.00725333
0.00610362
0.00546101
0.00571784
0.00489599
0.00294614
0.00603904
0.00554651
0.00455523
0.00647708
-0.00374541
0.00530023
0.00515305
0.00522018
0.00512936
0.00517887
0.00517311
2.72703e-05
0.0046216
0.00278336
0.00509998
0.00504343
0.00488616
0.00462491
0.00534113
0.00504053
0.00510668
0.0052059
0.00509442
0.0034015
0.00498457
0.00448897
0.00467151
0.00419269
0.00362901
0.00515738
0.00617363
0.00618543
0.00542915
0.00496198
0.00568797
0.000346404
0.00515937
0.00498089
0.00531018
-0.000103531
0.00546206
0.00572083
0.00481959
0.00527684
0.00623472
0.00576599
0.00351049
0.0059111
0.00377643
0.00461718
0.00346949
0.00278564
0.0060981
0.00434985
0.00625451
0.00677421
0.00505682
0.00691057
0.00547192
0.00522658
0.00670621
0.00520967
0.00656348
0.00524919
0.00654313
0.00632647
0.00497139
0.00446438
0.0048898
0.00584092
0.00474938
0.00539178
0.00534145
0.00438987
0.00571721
0.00443391
0.0050301
0.00491021
0.00502037
0.00575684
0.00419844
0.00412997
0.00510976
0.0047395
0.00508427
0.00389161
0.00490337
0.0037182
0.00436514
0.00493124
0.00484104
0.00422968
0.00374612
0.0022077
0.00496874
0.00451666
0.00760465
0.00681408
0.00531105
0.00266054
0.00342693
0.00452319
0.00447794
0.00511118
0.00550685
0.00592146
0.00596128
0.00554664
0.00482363
0.00603123
0.00242257
0.0067119
0.00666513
-0.00251309
0.0070636
0.00719754
0.00579878
0.00600447
0.00820627
-7.41739e-05
0.00380809
0.000197233
-0.00343269
0.00729227
0.00818315
0.00810914
0.0057245
0.00523599
-0.00203019
0.00612265
0.00711347
0.00679303
-0.00037934
0.00463786
0.00500487
0.00525164
0.00532319
0.00517765
0.00534791
0.00472796
0.00500578
0.00511615
0.00493202
0.0036168
0.005021
0.00384792
0.0051316
0.00529128
0.00524625
0.00489416
0.00536238
0.00449465
0.00502256
0.00545191
0.0050009
0.00488925
0.00560203
0.00504183
0.00536239
0.00229884
0.00482003
0.00458913
0.00279277
0.00506606
0.00520037
0.00516063
0.00215906
0.003689
0.00760011
0.00690015
0.00343067
0.00637497
0.0059539
0.00323991
0.00413699
0.00491041
0.00420664
0.00537901
0.00420578
0.00328273
0.00448827
0.00309034
0.0069255
0.00127991
0.00343665
0.00607446
-0.00349883
0.00645058
0.0038247
0.0056021
0.00378523
0.00389279
0.00371936
0.00545537
0.00552053
-0.00177769
0.00528138
0.00820825
0.00548383
0.00546614
0.00490541
0.00314425
0.00704056
0.00335909
0.00583264
0.0052795
0.00578328
0.00520549
0.00564845
0.00556423
0.00563349
0.00324231
0.00464817
0.00580937
0.00480777
0.00550638
0.00530772
0.0055894
0.00120471
0.00558108
0.00474583
0.00559419
0.00532408
0.00495293
0.0044058
0.00520707
0.00471076
0.00536863
0.00539487
0.00571964
0.00482187
0.00385714
0.00482772
0.00469459
0.00471168
0.00456292
0.00405902
0.0048841
0.00496744
0.00516282
0.00555613
0.0047375
0.00461661
0.00495233
0.0064184
0.00349086
0.0054451
0.00349273
0.00321414
0.00503555
0.00611121
0.00449063
0.00564196
0.00435139
0.00504782
0.00452532
0.00381118
0.00475929
0.00137608
0.00668534
0.00771918
0.00771616
0.00541575
0.007809
0.00482721
0.00356946
0.00604587
0.00240519
0.00605909
0.00471518
0.00593905
0.00741388
0.00611283
0.00615935
0.00620424
0.00551831
0.00830702
0.00551243
0.00560218
0.00564224
0.00542918
0.00601715
0.00546873
0.00489061
0.00512996
0.00536529
0.000718658
0.00544871
0.0052507
0.00656982
0.00440893
-0.000422604
-0.00046704
0.00646325
0.00147545
0.00519182
0.00642563
0.00546468
0.00629468
0.00520958
0.00540439
0.000720146
0.000410162
-0.000813431
0.000218238
0.00528738
0.00567023
0.00644109
0.00587424
0.00612415
0.00594313
0.004898
0.00572559
0.00570021
0.00469602
0.00646566
0.00558121
0.00575962
0.00578408
0.0057198
0.00579468
0.00559098
0.00567416
0.00559276
0.00602376
0.00474223
0.00451266
0.00184574
0.00478241
0.00496113
0.00524095
0.00584585
0.00540153
0.00506103
0.00589059
0.00306133
0.00486369
0.00510216
0.00557738
0.00547538
0.0053581
0.00556314
0.00595261
0.00552617
0.00547308
0.00163542
0.00452697
-0.00126231
0.00378329
0.00484072
0.00525908
0.00551979
0.00599128
0.00445187
0.00529193
0.00623116
0.00235768
0.0038488
0.00554302
0.00318314
-0.00209075
0.00544099
0.00577784
0.00559259
0.00543696
0.00551572
0.00618629
0.00557778
-0.00234755
0.00825626
-0.00207706
0.00345197
0.000994047
0.000774644
0.00467363
0.00448352
0.00531201
0.00538652
0.0033885
0.00269707
0.00274972
0.00107019
0.00632539
0.00499587
0.00262637
0.00334643
0.000927708
0.00313257
0.00269909
0.00454297
0.00727731
0.00491762
0.00490191
0.00469778
0.00436482
0.00289251
0.00497003
0.00564473
0.00521745
0.00490119
0.00498389
0.00498129
0.00499211
0.005632
0.00696255
0.00600413
0.00474789
0.00573441
0.00532308
0.00533274
0.00618978
0.00547349
0.00555079
0.0053522
0.00593567
0.00797205
0.00506929
0.00328366
0.00599002
0.00517811
0.00527091
0.00517347
0.00440694
0.00553779
0.00515028
0.00330328
-0.000708081
0.00556914
0.00518989
0.00562847
0.00554715
0.00537345
0.00427875
-0.00199965
0.00303086
0.00323055
0.00531085
0.00540698
0.00509048
0.00524977
0.00575008
0.00550916
0.00541705
0.00597485
0.00530387
0.005452
0.00497062
0.00514951
0.00514509
0.00549583
0.00470188
0.00541576
0.00509287
0.00523892
0.00666321
0.00553455
0.00519762
0.00553241
0.00607357
0.00209131
0.00230134
0.00454006
-0.0019672
0.0040249
0.00562406
0.00714177
0.00543642
-0.0026364
0.00559389
0.00679423
0.00606094
0.00593358
0.00576329
0.00806211
0.00726496
0.00714667
SCALARS CoVolArea double 1
LOOKUP_TABLE default
2728.18
2759.65
2879.3
2936.28
3144.21
2535.61
3129.08
2996.66
2514.5
2652.98
2509.71
2567.53
3335.82
3318.52
3897.57
3795.02
3611.18
3827.2
3784.3
3663.76
3545.66
3634.68
3388.01
3588.42
3748.7
3548.69
3269.96
3375.51
3656.94
3611.49
3499.82
3743.52
3474.85
3849.52
4049.26
3975.03
4094.26
3519.64
3571.51
3696.15
3377.71
3589.44
3035.01
3793.38
2990.57
3106.11
3394.61
3194.44
2899.42
3264.98
3171.26
3380.53
3287.75
2942.82
3891.27
3311.84
3423.77
2999.77
3905.29
3503.4
3498.72
3956.55
3632.87
4118.68
3669.08
3880.12
3292.19
3611.95
3985.79
3178.21
3794.59
3371.36
3424.83
3580.36
2942.53
3511.25
3182.42
4049.49
2981.71
3203.76
3264.17
3024.8
3341.65
3211.52
3709.6
3318.79
3370.53
3749.85
3855.86
4045.06
3664.29
3795.01
3123.4
3433.95
3308.57
3712.11
3582.83
3247.58
3647.23
3194
3614.15
3833.46
3436.04
3678.97
3304.31
4029.19
3646.32
3399.47
3951.04
3411.56
3863.66
3353.65
3827.81
4020.66
3655.51
3468.86
3911.66
3200.54
3890.49
4174.68
3709.51
4063.67
3706.59
3865.01
4350.87
3652.93
4032.99
3618.5
3870.82
3469
3395.21
3828.23
3340.87
3866.35
3297.37
3721.65
3365.47
3459.93
3739.66
3624.1
3747.2
3277.97
3735.08
3426.24
3349.44
3919.77
3103.39
4047.64
3815.62
3739.98
3881.11
4116.28
3752.27
3695.86
3615.47
3694.14
3717.44
3723.59
3864.02
4002.51
3279.44
3293.01
3130.87
3007.75
3172.69
3539.11
3072.05
2981.08
3284.06
3205.92
4058.08
3069.25
3015.48
2868.1
3321.07
3038.18
3072.15
3362.07
3184.07
3598.76
2969.99
3085.6
3084.27
3614.47
2942.19
3169.03
3117.68
3076.97
3332.37
4001.63
3729.17
4062.91
3247.51
3311.11
3595.48
3028.76
3269.82
3182.16
3557.62
2992.31
2930.59
3856.21
3204.93
3157.62
3189.24
3867.44
3283.85
3217.96
3183.5
3579.89
3192.56
3315.21
3281.83
3030.84
3603.37
4093.32
4138.8
3929.47
3432.54
3373.56
3802.09
3397.12
3518.59
3493.65
3903.57
3365.3
3441.65
3968.43
3557.92
3560.9
3461.38
3826.23
3573.75
3721.87
3589.87
3976.16
3725.88
3561.24
3603.31
3748.11
4016.86
4467.2
4557.66
4534.42
3483.78
3245.15
3930.71
3593.59
3287.8
3480.17
3748.13
3599.49
3653.93
3914.16
3641.06
3497.16
3643.75
3943.09
3193.99
3432.18
3214.23
3664.08
3310.61
3136.12
3374.9
3501.03
3861.84
4389.78
4373.84
4255.23
3210.17
3515.05
3221.19
3126.53
3263.46
3195.35
3198.91
3329.82
3019.52
3471.95
2960.23
3389.73
3165.05
2934.43
3301.85
3443.21
3411.64
3654.23
3928.05
3602.81
3486.47
3495.54
3009.97
3203.05
4064.95
3309.26
3040.2
3192.31
3813.76
3112.03
3121.14
3374.06
3107.92
3160.83
2974.72
3568.68
2992.68
3121.66
3156.7
3616.61
3088.62
3306.93
3166.32
3114.85
3375.73
4088.42
3693.37
4090.17
3293.21
3152.74
3568.32
3307.48
3328.01
3382.32
3692.6
3244.49
3313.61
3854.71
3457.83
3430.13
3287.66
3546.68
3806.65
3830.5
3690.23
3801.45
3778.53
3503.81
3575.82
3774.33
3987.83
4159.21
4353.3
4264.78
3189.8
3139.9
3547.96
3332
2991.71
3304.21
3654.14
3189.78
3722.32
3213.99
3316.16
3066.06
3592.44
3548.34
3603.62
3473.45
3299.8
3827.27
3528
3410.44
3163.3
3243.6
3339.95
3896.32
3714.49
4142.5
3219.47
3025.53
3676.93
3314.14
3281.46
3218.61
3495.81
3633.65
3675.68
3797.36
3578.63
3456.87
3571.98
3767.75
3567.83
3387.81
3483.13
3520.12
3307.56
3350.34
3402.72
3372.15
3762.22
4191.63
4217.7
4099.46
3690.93
3616.91
3975.35
3685.66
3551.01
3679.71
3961.74
3341.5
3515.87
3782.3
3531.46
3340.62
3609.41
3965.14
3196
3491.23
3183.82
3920.67
3580.08
3451.68
3201.97
3464.54
3704.04
4460.15
4335.96
4429.61
3714.98
3750.07
3737.63
3738.76
3542.81
3482.29
3629.41
3580.04
4129.6
3343.82
3397.94
3258.65
3891.56
3482.06
3495.57
3091.28
3318.74
3686.28
3795.63
3796.23
3711.49
4182.27
3877.86
3806.03
3660.97
3765.88
4007.19
4513.59
4535.31
4648.7
3939.49
3605.36
4024.75
3753.22
3742.99
3972.18
4368.35
3796.39
3998.79
4204.3
3956.55
3778.01
3965.47
4229.53
3559.82
3905.23
3693.92
4350.32
3913.99
3693.93
3542.39
3693.6
3953.37
4573.35
4559.56
4577.12
3491.54
3400.26
3904.92
3490.71
3399.85
3487.47
3763.33
3310.47
3437.45
3712.36
3439.87
3338.77
3450.06
3878.99
3498.97
3457.48
3484.8
3748.09
3460.2
3277.18
3236.37
3437.03
3704.64
4402.52
4326.6
4356.28
3477.76
3403.42
3708.92
3468.72
3213.33
3419.42
3565.17
3563.02
3453.28
4062.19
3516.51
3409.51
3337.51
3611.02
3237
3425.64
3103.75
3512.49
3489.85
3286.45
3366.38
3535.65
4095.61
4052.13
4265.49
3984.61
3596.29
3489.24
3300.54
3610.83
3952.48
3112.59
3649.52
3539.86
3558.31
3567.24
3403
3402.89
3261.1
3026.83
3779.39
3384.99
3268.8
3453.03
3576.5
3912.64
3944.21
4341.19
3924.43
4097.52
3853.59
3805.42
3778.67
3399.05
3627.69
3369.13
3522.04
3969.64
3314.27
3700.17
3392.62
3339.72
3628.72
4413.07
4201.77
4264.38
3674.71
4016.99
3523.47
3484.23
3610.12
3794.2
3923.2
3732.99
3841.12
4119.07
3307.18
3507.17
3219.03
3414.64
3800.11
4521.77
4406.52
4309.43
3434.39
3555.26
3305.2
3491.61
3998.03
3373.3
3511.67
3302.53
3375.95
3628.37
3272.33
4017.12
3446.72
3298.05
3440.58
3970
3932.72
4212.71
3293.99
3577.01
3299.36
3386.47
3761.28
3405.63
3760.24
3393.41
3357.33
3590.56
3687.31
3844.26
3611.41
3575.83
3781.22
4171.35
4248.57
4259.5
2999.98
3864.77
3439.51
3438.36
3859.73
3198.61
3374.94
3131.68
3251.97
3721.58
3287.93
3380.93
3037.69
3282.68
3515.46
3861.66
3572.2
3806.72
SCALARS SignedDistance double 1
LOOKUP_TABLE default
233.651
230.082
204.038
191.156
168.326
246.38
256.896
183.992
244.22
244.844
262.384
261.251
299.562
243.999
294.867
289.66
229.607
169.342
179.07
200.554
219.078
290.522
234.671
291.083
198.772
189.398
245.211
250.364
196.35
243.037
217.531
191.559
233.327
187.956
153.07
159.267
202.063
204.807
200.19
236.054
233.676
273.22
263.525
299.059
274.158
250.161
275.945
284.572
271.733
271.781
243.188
269.779
231.158
268.386
289.451
225.154
267.706
271.364
181.98
198.051
188.643
179.098
177.846
173.429
174.826
194.209
217.334
187.304
193.258
254.854
216.583
226.574
254.405
293.746
277.683
306.033
284.464
289.331
260.501
238.048
264.311
269.423
265.802
238.412
215.793
217.262
233.999
220.822
181.387
194.171
174.239
269.508
261.242
274.705
272.27
237.071
249.69
219.359
212.896
248.468
183.094
187.321
249.481
213.566
223.986
184.997
183.161
212.932
186.393
209.813
209.708
243.75
222.546
181.483
195.574
217.079
197.289
242.184
141.98
155.36
172.118
192.272
188.613
144.5
161.26
191.598
193.043
201.911
190.437
183.099
193.379
190.014
231.72
216.423
231.374
205.391
202.696
246.672
229.898
259.951
248.489
235.907
236.86
277.691
265.363
258.23
267.394
186.219
211.063
209.474
200.515
165.678
217.934
235.631
218.367
257.396
203.371
210.23
183.036
282.084
266.686
252.948
247.711
267.262
253.917
299.738
282.269
280.478
290.482
285.536
296.296
255.248
267.077
272.564
259.665
262.637
246.36
301.242
280.058
296.036
259.408
257.989
244.631
284.032
271.913
283.163
243.033
257.509
257.725
292.905
273.683
288.279
255.27
234.075
287.363
275.081
226.977
251.97
248.665
257.94
269.229
288.952
278.778
278.241
280.316
291.666
228.668
250.633
251.087
250.265
248.336
225.678
286.54
270.701
284.103
283.956
282.21
266.158
213.128
214.42
204.235
206.124
184.321
189.114
173.382
209.53
204.732
165.778
179.486
172.856
200.895
206.469
179.8
175.157
178.436
169.891
173.353
177.843
171.62
173.87
167.616
185.74
171.852
169.074
204.727
223.643
188.125
193.076
213.949
201.02
204.273
185.213
183.791
199.751
191.173
192.167
185.193
186.992
263.081
244.594
243.003
215.809
235.935
236.104
212.209
228.656
214.138
192.505
202.741
201.494
239.334
234.307
234.578
257.616
276.687
278.823
276.908
299.848
287.584
292.518
262.951
245.998
286.048
274.583
305.338
299.14
286.331
291.38
296.796
262.402
291.273
283.077
264.257
244.473
289.547
282.209
276.171
277.757
290.223
242.577
254.059
249.401
250.965
235.371
266.169
276.858
256.997
254.545
241.51
280.814
268.235
282.549
235.847
251.92
249.834
278.499
264.699
280.47
230.263
231.711
229.371
228.921
203.092
215.584
202.391
245.71
240.036
214.4
225.461
215.473
234.93
231.627
186.095
186.912
169.62
188.766
186.296
176.255
186.118
188.056
197.024
217.087
206.356
203.013
274.658
260.152
279.121
277.19
258.214
270.947
268.626
276.41
282.283
261.752
270.873
260.924
283.374
281.173
219.442
224.998
209.724
259.069
243.546
248.269
231.765
234.292
244.218
273.025
263.592
267.302
235.728
254.31
203.741
217.279
244.22
229.922
227.248
185.78
184.488
190.836
184.27
184.291
184.947
190.097
252.821
234.799
240.23
227.478
230.373
245.546
208.489
217.502
203.05
196.363
196.925
210.562
179.959
183.74
178.752
178.761
185.691
183.934
190.914
219.494
201.265
197.857
197.276
211.654
184.832
178.83
226.057
226.079
241.958
203.086
213.897
199.799
229.221
224.409
209.278
184.567
193.175
194.237
204.978
213.384
203.767
208.264
208.848
233.115
169.494
187.29
163.802
229.751
228.935
240.456
190.986
207.202
203.796
239.024
221.23
213.747
155.876
150.669
170.626
148.351
144.255
142.586
178.611
158.94
171.141
186.301
173.577
163.818
199.441
186.835
166.928
189.788
195.029
201.156
210.926
152.62
153.074
152.71
148.279
147.465
151.678
151.409
195.463
204.596
212.965
206.528
202.136
194.777
179.436
192.974
170.974
171.317
167.65
200.279
181.138
183.141
196.258
189.193
189.394
183.27
192.124
195.243
188.362
194.054
188.229
197.009
188.159
194.13
251.161
240.646
248.619
208.416
225.554
215.13
216.316
222.22
208.016
198.487
199.856
204.012
189.337
194.091
199.421
192.071
216.829
201.438
217.197
251.835
248.783
248.388
247.997
240.764
228.381
213.618
259.018
256.419
238.787
239.504
254.93
245.653
234.54
254.653
250.01
216.034
236.242
225.632
208.42
232.161
219.338
227.427
243.252
261.933
267.55
266.84
266.039
272.985
260.526
244.6
256.284
256.289
250.083
253.076
270.677
262.926
262.474
242.923
261.709
253.45
184.061
190.469
184.984
180.238
182.948
227.21
221.626
223.843
212.791
200.413
228.076
198.144
212.637
223.186
221.13
196.69
208.496
195.084
224.235
176.314
197.64
221.253
225.054
154.706
182.29
165.695
151.478
157.28
245.378
234.904
240.595
223.791
206.709
177.106
188.495
203.721
248.046
219.639
231.347
250.59
253.39
203.96
231.023
216.94
204.424
209.045
270.985
258.071
265.799
266.767
249.45
225.608
236.204
243.458
221.121
218.795
218.494
204.608
192.796
233.38
201.589
215.983
227.002
222.1
182.913
184.087
181.58
180.715
187.508
204.471
193.865
189.973
267.945
276.409
274.747
280.73
288.005
262.026
242.507
255.242
278.643
281.452
236.133
272.904
255.174
231.698
232.246
283.719
259.653
277.109
