# vtk DataFile Version 4.2
vtk output
ASCII
DATASET POLYDATA
POINTS 642 double
-128.042 246.606 -7.51433
126.046 256.635 -11.0713
-122.599 -216.653 40.8739
139.913 -224.447 41.2786
1.32089 -175.952 309.27
3.40815 100.229 272.769
3.16588 -72.0797 -108.128
2.69276 196.339 -189.39
168.736 63.5034 -117.552
167.868 1.28473 207.308
-143.138 61.7549 -116.221
-144.055 5.94016 206.265
-157.245 157.421 53.4202
-92.5425 61.7231 265.079
-33.2937 149.266 119.544
44.2675 150.567 125.619
1.06743 294.769 -27.512
87.4385 297.189 -100.247
-74.1122 290.349 -97.2533
-115.3 117.987 -186.911
-186.586 193.252 -40.0283
-153.028 22.9057 32.696
103.77 66.035 271.396
131.02 128.329 59.9896
-118.012 -99.4231 288.091
7.19344 -2.11075 349.467
-152.364 -131.713 -10.2972
-139.895 -139.308 191.114
4.90974 61.7522 -228.821
-93.644 6.65362 -167.399
183.646 192.268 -51.0102
126.847 120.34 -190.357
164.54 -141.226 196.493
134.374 -100.442 291.929
98.0545 -239.038 240.952
-88.5292 -235.274 239.825
0.186339 -239.029 38.8943
-81.9986 -207.627 -57.1384
95.3856 -209.656 -58.6681
104.793 4.00988 -169.993
168.826 -142.327 -12.7961
173.558 4.24575 58.001
-152.596 204.135 12.1222
-110.973 135.755 67.846
-106.164 232.031 13.1912
-126.156 33.8666 239.785
-111.863 70.5477 208.383
-129.874 49.3524 179.878
-19.285 119.538 230.2
-67.012 97.9164 231.972
-46.1248 85.2999 276.752
-30.0771 256.416 17.9987
-54.1703 290.033 -22.0301
30.7158 122.433 229.464
6.05056 148.695 131.136
69.1703 294.361 -22.5634
42.4759 256.484 18.5864
101.335 237.155 10.5611
-45.2465 317.688 -56.2706
-97.9852 278.387 -50.6561
105.598 295.996 -56.4266
56.4174 318.718 -56.5268
-40.8438 250.103 -154.077
2.07525 297.651 -102.882
48.8407 251.977 -155.966
-153.873 234.645 -71.8639
-168.89 222.725 -26.9232
-67.8617 156.759 -199.064
-103.039 209.56 -141.024
-169.671 170.553 -62.7439
-160.822 175.386 -98.6009
-141.167 84.7584 -148.6
-181.98 188.677 -8.20859
-139.663 83.1537 -19.3429
-186.885 172.538 -32.2486
-140.264 165.624 44.9732
-146.504 0.943311 140.023
96.1697 144.619 87.7851
150.778 215.752 5.0269
58.2632 86.5637 279.909
76.7154 102.418 236.185
154.168 41.0788 183.704
123.57 72.089 217.608
140.987 34.9048 245.261
-48.0283 38.6519 313.997
4.69024 58.2346 316.267
-135.117 -50.7901 249.851
-107.4 6.02592 285.486
3.78828 -50.1235 342.925
-52.9804 -33.6746 327.279
-75.5166 -143.488 314.128
-157.473 -52.0557 98.5359
-143.262 -73.1889 209.454
-133.348 -52.522 -51.2869
-157.62 -72.7207 16.0841
-140.081 -145.823 117.098
-155.315 -137.041 31.4455
-144.795 -179.642 8.57239
-115.585 57.2359 -188.507
-131.42 33.9658 -139.467
3.94621 107.756 -231.558
-68.9369 89.3572 -223.154
-71.1568 -39.7864 -150.74
-63.3184 25.6141 -207.538
2.37317 7.32311 -203.008
111.893 216.175 -147.919
74.9458 159.828 -200.329
170.721 229.413 -27.8124
158.904 243.499 -78.0411
163.505 82.3652 -153.028
168.673 172.219 -108.082
170.648 136.726 -73.8437
157.285 -154.503 115.143
152.639 -194.282 215.317
115.829 -225.379 178.156
155.608 -50.855 254.463
166.508 -129.012 244.391
168.104 -77.9556 209.105
62.8513 -217.27 300.17
125.108 -183.633 288.161
83.8352 -148.462 314.622
59.906 -245.655 192.661
92.6203 -244.309 41.1247
-56.0074 -215.578 297.705
1.6416 -239.118 241.183
-79.8535 -242.973 41.9075
-54.3503 -244.423 190.181
-101.914 -223.698 173.387
65.2151 -243.006 -15.7231
125.132 -232.025 -15.73
-110.217 -225.718 -13.3817
-58.6818 -242.887 -15.4226
62.4263 -168.014 -83.0975
0.675802 -204.387 -56.5678
-54.6436 -166.838 -83.7667
147.117 -185.859 -41.0474
166.022 -190.537 6.18615
76.249 -38.7598 -149.724
100.857 -154.988 -82.9172
155.364 -42.8776 -53.1614
143.058 -107.082 -58.126
151.156 34.4759 -142.166
172.502 -143.171 32.1524
153.6 60.3099 -45.481
173.971 -85.0996 19.2795
173.55 -55.0934 102.751
170.064 6.10444 152.845
59.2841 -27.5462 337.126
118.984 4.88019 292.475
57.4995 37.8039 320.123
-132.746 -185.711 215.828
-114.935 -178.871 282.476
-141.564 -131.479 241.014
-88.7613 -149.396 -82.5048
-128.852 -178.333 -36.9002
-130.192 -99.2363 -55.159
130.297 57.539 -191.79
69.6408 24.3233 -209.346
71.8208 89.154 -226.716
174.897 81.0037 44.734
179.342 165.988 -30.4534
174.118 194.498 -18.8493
-141.735 226.171 2.85719
-130.803 220.418 13.9856
-117.184 239.973 5.13983
-150.184 137.431 60.6939
-142.223 197.969 20.1869
-158.808 180.288 18.435
-76.7282 214.511 29.5444
-119.141 211.774 23.3474
-73.3376 143.388 94.1013
-137.181 19.8668 222.784
-131.645 38.5054 212.73
-139.002 23.6405 198.54
-105.549 66.2998 238.753
-119.762 53.9717 227.065
-111.591 47.7752 253.945
-135.073 109.563 123.459
-122.079 61.134 193.347
-126.727 87.2165 141.234
-8.22342 111.365 251.907
-32.9001 103.347 254.972
-18.1677 93.6359 276.258
-52.6733 113.792 209.314
-43.6056 109.705 232.708
-28.4612 124.616 209.319
-69.9665 74.6252 272.9
-58.592 93.0873 254.877
-80.1096 82.3133 250.505
-97.9136 95.1819 165.075
-92.5025 84.9326 221.016
-81.3457 101.401 191.585
-78.4186 256.645 -4.03987
-89.9598 266.663 -18.5013
-32.392 224.884 44.1005
-58.6098 245.556 13.2245
-37.8103 296.886 -23.175
-43.4275 276.662 -5.73723
-24.8307 278.745 -2.84479
16.7585 112.248 251.672
4.73944 122.539 231.468
30.5382 148.292 132.041
18.1298 130.213 211.142
40.9492 128.784 208.354
-6.07006 129.592 211.839
-14.2945 149.587 128.639
91.4334 279.568 -19.8798
81.9149 268.595 -6.42765
115.673 249.315 -1.07478
32.4087 277.689 -4.10227
59.1718 279.242 -6.30435
49.4383 298.723 -24.4925
72.8301 214.592 40.5539
64.4314 252.902 13.1725
41.6065 224.343 47.7887
-8.87329 223.86 55.4414
17.0625 222.682 57.299
1.27473 255.073 25.6957
-73.6852 291.33 -39.7813
-119.055 264.065 -29.0023
-27.5328 311.269 -43.8779
-48.905 308.306 -44.1222
-86.4606 292.876 -71.5084
-64.4721 308.649 -57.7099
-60.8406 313.765 -72.24
113.854 276.968 -39.0786
86.2417 301.481 -42.4346
74.5495 318.218 -73.6955
81.7013 313.639 -57.6285
100.194 303.891 -72.8947
63.7832 310.393 -43.7583
34.7221 310.866 -44.9648
-19.9985 226.326 -175.282
2.44429 252.735 -159.784
25.76 227.445 -176.541
-45.5473 301.208 -105.248
-24.2672 277.068 -130.717
-57.9267 273.506 -124.353
69.9811 277.292 -126.063
30.2903 276.862 -130.873
55.0482 302.542 -105.235
2.54354 314.271 -56.1866
33.5997 318.691 -75.816
-27.0612 319.212 -75.9071
-145.524 250.432 -34.1294
-150.344 237.211 -18.8395
-114.557 263.051 -83.9099
-131.188 259.82 -57.5928
-185.482 204.577 -33.3285
-165.715 231.374 -43.0668
-179.445 208.956 -54.9712
-35.9038 178.137 -194.686
-52.9283 210.055 -177.523
-108.418 163.184 -164.871
-81.942 185.935 -174.276
-94.3327 135.925 -197.324
-70.0313 234.055 -152.41
-87.441 250.024 -119.218
-147.831 102.671 -94.615
-149.414 119.883 -105.171
-144.298 72.1846 -131.082
-176.248 187.91 -68.5417
-166.658 176.286 -80.5209
-189.485 192.366 -48.1303
-129.94 101.001 -169.352
-144.669 133.09 -121.495
-133.475 142.394 -142.177
-135.323 227.581 -105.954
-141.434 189.693 -121.456
-165.557 202.903 -88.5663
-161.728 215.788 -7.06433
-186.96 194.839 -30.011
-180.433 199.925 -18.2467
-169.013 192.117 4.03313
-171.309 178.549 14.2585
-144.104 68.9815 -92.4495
-158.576 141.248 -47.883
-179.248 130.435 -14.3522
-182.153 142.153 -21.2326
-163.603 58.1587 15.9701
-185.886 174.971 -33.7046
-185 184.218 -32.866
-138.935 26.9428 172.002
-144.392 6.45911 188.589
-159.511 160.663 44.2271
-128.24 80.4648 110.468
-153.621 -0.0200178 83.4481
-142.01 40.8513 105.781
-158.347 70.5875 11.7085
-191.699 197.319 -28.9264
-178.389 170.436 -35.2877
-179.389 186.367 -1.34142
132.994 226.985 11.1246
144.386 232.262 0.990466
68.8612 148.798 110.021
113.069 210.914 25.4166
150.269 200.045 8.46392
136.885 208.665 16.3865
116.57 138.985 68.7552
27.6924 93.8894 277.074
44.4558 105.145 255.84
90.8693 85.579 256.379
70.2633 95.5721 258.429
81.4117 77.7202 278.069
54.9924 114.027 233.215
60.9525 120.35 211.396
163.388 21.0758 196.151
150.105 37.4386 214.961
156.908 16.0599 226.009
127.03 81.7342 172.468
139.931 58.4519 200.571
138.381 70.508 154.078
123.821 52.1658 260.483
132.57 55.655 234.011
116.586 69.5264 246.51
87.7605 108.106 202.89
101.974 88.852 229.161
110.052 95.2851 187.79
-19.3654 74.4943 297.646
3.55622 82.8795 295.078
-73.9695 53.9363 289.806
-49.3247 64.751 296.378
6.10453 27.5382 335.526
-19.7809 47.2706 318.821
-17.757 18.2584 336.142
-141.642 -19.2018 228.889
-132.712 4.54366 245.41
-111.626 -45.152 285.506
-124.007 -20.4025 267.15
-130.259 -76.1914 269.298
-118.717 22.9303 263.526
-102.559 36.3796 276.466
-1.5054 -119.021 313.876
-42.2667 -103.95 318.164
-49.0175 -160.229 315.611
-14.8593 -10.5095 347.025
-22.3074 -40.0337 339.954
7.14865 -17.5529 355.443
-98.5075 -123.081 303.653
-70.4819 -88.7515 317.536
-91.0779 -71.4281 308.134
-80.2562 23.591 302.5
-84.819 -15.3477 308.927
-47.5245 5.97666 327.667
-145.279 -21.4144 175.622
-144.387 -29.8435 206.571
-159.352 -22.5602 73.9875
-155.776 -23.7421 114.405
-142.265 -115.143 201.75
-144.5 -63.4346 161.921
-143.843 -96.3083 148.884
-134.524 27.142 -102.75
-136.459 -0.789562 -49.8931
-156.779 -106.742 2.80202
-153.903 -76.1083 -4.17761
-149.003 -106.578 -20.3737
-152.791 -25.1157 16.77
-158.637 -24.2983 37.1887
-126.547 -199.68 67.7953
-143.573 -179.455 36.2528
-136.611 -200.764 21.4569
-137.81 -154.931 107.437
-145.576 -156.052 58.7248
-132.546 -153.312 168.121
-152.431 -155.491 -2.00322
-154.16 -156.397 21.628
-156.662 -135.405 11.8138
-158.53 -60.6122 44.3455
-157.603 -108.564 20.6118
-154.675 -95.4201 59.9018
-138.588 58.2997 -148.02
-137.537 46.3131 -128.582
-117.516 85.4378 -190.694
-129.664 70.9913 -171.745
-119.211 25.3197 -155.389
-125.197 45.8664 -166.175
-108.723 33.644 -179.931
2.65358 146.847 -213.522
-37.8825 132.932 -219.142
-33.9336 74.5876 -229.409
-35.5273 98.7325 -230.261
5.60343 84.1612 -236.373
-71.8595 118.477 -218.567
-95.4981 105.094 -210.288
-55.8726 -47.1652 -131.807
-33.4769 -5.61508 -188.726
3.01857 -9.522 -184.151
-81.6033 15.3208 -189.013
-59.3964 3.34416 -189.424
-70.2035 -16.5684 -162.779
2.69469 29.0323 -218.1
-34.4413 14.8298 -208.122
-35.8253 38.5753 -220.91
-96.9546 71.7742 -210.12
-68.3934 55.2878 -220.384
-92.0247 41.7659 -202.76
[...]
POINT_DATA 642
SCALARS Mean_Curvature double 1
LOOKUP_TABLE default
0.0220248
0.0275036
0.0187521
0.018633
-0.00953167
0.018278
-0.010545
0.0013775
0.0330275
0.0207706
0.00948015
0.0227526
0.037542
0.0132984
0.000132446
0.00618998
-0.00702535
0.021185
0.0148102
0.0147688
-0.022795
-0.0363193
0.0158464
0.000916459
0.0113483
0.0141875
0.010953
0.00939826
0.000821647
0.00704288
0.0115709
0.0118328
0.0103312
0.0122606
0.0145321
0.0176985
-0.00288028
0.019817
0.0186707
0.00730069
0.00899144
-0.0021565
0.0241121
-0.0170867
0.00627748
0.0136563
0.0128492
0.00127997
0.0105876
0.00585724
0.0142917
0.00901498
0.0144035
0.0127051
-0.00474685
0.020461
0.00876402
-0.00436289
0.0430809
-0.00458704
0.0293989
0.0361099
0.0110124
-0.00233063
0.0112235
0.0140879
0.0185343
0.00849262
0.00147348
-0.000352051
0.0222825
0.0149368
-0.269434
-0.0186882
-0.294792
-0.0322201
-0.00103247
-0.000128684
0.025527
0.0141736
0.0066302
0.00727388
0.00467609
0.0113827
0.0104403
0.0150674
0.00230931
0.0137229
0.0076139
0.00453767
0.0139597
0.00583439
-0.000252473
-0.00401008
0.00963272
-0.0439171
0.00754482
0.00975979
0.0201619
0.0205584
0.00854155
0.0129481
-0.0926564
0.0152567
0.00930864
0.00596934
0.00554973
0.0307802
0.0204545
0.0225961
0.0121931
-0.0225361
-0.0445774
0.0245868
0.0115504
0.00467375
0.0191853
0.00225399
0.0216879
0.0162438
0.00999504
0.00653983
0.0096205
0.020945
-0.0110251
0.0143427
0.00574858
0.0174472
0.0159695
0.0227472
0.0219131
0.0176596
0.0115797
-0.00697
0.0127453
0.0193657
0.0267513
-0.0138528
0.0109177
0.00329012
0.0237796
0.0165001
0.00181755
-0.0126682
-0.00689665
-0.000264336
0.0104099
0.00844193
0.00861147
0.0103496
0.0132767
0.018278
0.0129514
0.00547695
0.0129087
0.0361829
0.0179337
0.0142552
0.0109027
0.0610095
-0.00405483
0.0015104
0.0152421
0.0168052
0.0203778
-0.0457818
0.00390637
-0.0410189
-0.00644027
0.00839402
-0.00270062
0.0144375
0.0117883
0.00751654
0.0142149
0.0143868
0.0138528
0.0787545
0.0193361
-0.0851204
0.0113846
0.00950421
0.00819222
0.00539384
0.00810665
0.00887314
0.0132895
0.0121239
0.0127753
-0.00610591
0.00885023
0.0082688
-0.00269388
0.00198552
0.00114813
-0.0015003
0.0199048
0.00602452
0.00854558
0.00947412
0.010587
-0.000857465
0.00734817
0.0156326
0.0124667
0.00466016
0.0118849
0.000815405
0.00800021
6.42638e-05
0.0125852
0.0144666
-0.00287734
0.00075557
0.00423744
0.0114232
0.00900355
0.00827281
0.0121538
0.0245674
0.0205102
0.0140494
0.0251573
0.0268675
0.0361798
-0.00743458
0.0139117
0.0349107
0.0379763
0.0341114
0.014128
0.0110214
0.00910333
0.0112451
0.010005
0.0212763
0.00600187
0.0101552
0.0119123
0.00211943
0.0149282
0.00695879
0.0242983
0.0288547
0.0303684
0.011196
0.00911716
0.0186366
0.0532306
0.0227968
0.0265659
0.00119806
0.0136669
0.0044079
0.00631042
0.0126285
0.0113646
-0.00216732
-0.00141406
0.0075001
0.0152996
0.0209722
0.000667076
0.104868
0.00997365
0.00311633
0.0046738
0.0128532
0.0107569
0.0217113
0.0129429
-0.120446
0.0205472
0.0091855
0.260861
0.00378315
-0.014688
-0.206166
0.0501708
0.0707776
0.037362
-0.189146
0.00253014
0.0104969
-0.0726839
-0.0225956
0.00348159
0.00288613
-0.0205638
0.160525
-0.0468325
-0.082471
0.0234788
0.0225805
0.000871221
0.000519254
0.00501422
0.0149155
-0.00182076
0.00579758
0.00801053
0.012733
0.012226
0.0161302
0.0108062
0.00732483
0.0159683
0.00841406
0.00964576
0.00585975
0.0076138
-0.000815444
0.0167403
0.00996337
0.0138991
0.00642615
0.00806449
0.00609289
0.0083326
0.0187945
0.0129325
0.0135659
0.0122693
0.00858577
0.0131844
0.0131274
0.0112964
0.00274386
0.00958376
0.014119
0.0142116
0.0141042
-0.00551653
-0.000809503
0.00567369
0.0199065
0.00862
0.0416877
0.00950665
0.0112998
0.00999607
0.0112409
0.00971186
0.0107099
0.000526911
0.00434708
0.00974605
0.00946258
0.00169126
-0.00280522
-0.00053145
0.0057556
-0.00205458
0.0151005
0.00715093
0.00424654
-0.00536855
0.0241664
0.00543897
0.00976535
0.016975
-0.0280784
0.04243
0.00129289
0.0209372
0.020051
0.0158823
0.00364809
0.0063258
0.000592993
0.0232298
0.00658956
0.015025
0.015913
0.00803089
0.0140151
0.01353
0.00162876
0.00869091
0.00864505
0.0147845
0.0249446
0.0182981
0.0206991
-0.014881
0.00921845
0.000850665
0.0139176
0.0150213
-0.0195275
0.0105141
0.0154932
0.0126195
0.0202214
0.0182145
0.0186919
0.00995316
0.00171944
0.000216794
0.0104518
0.0121772
0.0104135
0.00549879
0.0161377
0.0273638
0.0251421
0.0127261
0.0315725
0.0111311
0.00606104
0.0284265
0.0152491
0.0387755
0.000646114
0.00601158
0.0112848
0.0188774
0.0136236
0.0201743
0.0123231
0.0203002
0.00485169
0.00858795
-0.00128531
0.00621936
0.0177801
0.00968498
0.00291993
0.0179755
0.0132235
0.0230615
0.0158785
0.00981461
0.00810448
0.0156786
0.0174857
0.00475361
0.00113493
0.00501732
0.0075839
0.0254223
0.0231861
0.00398538
0.0178952
0.0220577
0.0215167
0.00720065
0.0149703
0.0125041
0.0208237
0.0203513
0.0134211
0.0208504
0.0166143
0.0185011
0.0114932
0.00743294
-0.00106675
-0.0120984
0.03017
-0.00789694
0.0146495
0.0195055
0.0211
0.0157892
0.0133793
0.013826
0.0208781
0.00617086
-0.00606065
0.00454711
0.00889335
0.0144407
0.015863
0.021285
0.0333042
0.036166
-0.011454
0.0219426
0.0189957
0.0127145
0.00494337
0.0216535
0.0236606
0.0137007
0.0189139
0.0219397
0.0201126
0.0251096
0.019913
0.0131765
0.0111368
-0.00451011
-0.0112101
-0.000324293
0.011837
0.0144124
0.0064796
0.013881
0.0174155
0.0124398
2.44855e-05
0.0179108
0.0141377
0.0234056
0.0214453
0.0175123
0.0195219
0.00896045
0.026717
0.0147485
-0.0121398
-0.0719433
-0.0215274
0.0949529
0.0422159
0.02136
0.0216469
0.0118459
-0.069835
0.0201775
0.012429
-0.0303705
0.00560346
0.00603186
0.0783565
-0.0147374
0.0182612
0.00538902
0.0131028
0.0203833
0.0225746
-0.00169439
0.0269844
-0.0113042
0.00329847
0.00049344
0.00300676
0.00150922
0.0081917
0.00699697
0.0152965
0.000621823
0.0168015
0.00260647
-6.55019e-05
0.000573002
-0.00149006
0.0251366
0.0262794
0.00260579
-0.000440054
-0.0028581
0.00607614
0.00409792
0.0158188
0.0260649
0.00867392
0.0141022
0.011124
0.0101659
0.010072
0.00521105
0.0139132
0.00795741
0.0144663
0.0142109
0.0109486
0.00929303
0.0161596
-0.00445543
0.0127333
0.0160959
0.0150304
0.0182577
0.0220073
0.0107608
0.0179585
0.0176557
0.0214632
0.0132609
0.00324964
0.00125882
0.0163079
0.0139283
0.0195727
0.0223008
0.0175585
-0.0773871
0.016109
0.0274777
0.0921795
-0.0263289
0.0240117
0.0144062
0.0138419
0.0192346
0.0152719
-0.0649489
-0.0206828
0.133147
-0.0537416
0.0166887
0.0155002
0.0149671
0.00619695
0.014196
0.0134732
0.0126431
0.0213788
0.0173974
0.00864435
0.0102254
0.0138427
0.0114563
0.0137449
0.00772209
0.0183698
0.0127464
0.0197731
0.017044
0.0167854
0.0132261
0.0184826
0.00697059
-0.0210478
0.00832036
0.00231533
-0.0072359
0.00192069
0.0364005
0.0310493
-0.00431989
-0.0295587
0.0288814
0.00292205
0.0157542
0.0315472
0.0274104
0.127499
0.0497189
-0.0440042
SCALARS CoVolArea double 1
LOOKUP_TABLE default
600.545
673.782
899.157
964.983
1641.03
540.4
4429.36
1545.24
316.535
584.904
612.534
503.196
551.147
723.573
3404.25
2225.5
1300.38
1213.66
1280.48
1229.48
222.533
1208.83
728.745
2244.43
1362.09
615.669
639.814
1480.42
1196.71
2394.22
471.536
1385.4
1455.54
1539.01
1320.52
1159.85
3465.14
762.517
832.678
2441.05
812.061
1973.7
446.035
3309.14
853.092
617.323
1039.87
1353.08
588.74
807.419
754.874
1060.62
740.441
630.795
2204.09
580.688
1180.95
1098.5
546.025
881.862
663.442
644.94
1388.51
1846.45
1505.63
1282.09
509.249
1459.86
1956.34
1187.86
985.865
989.633
169.766
4472.93
128.089
4533.69
1658.11
2860.26
310.791
800.434
744.434
906.133
891.101
787.587
1079.15
877.847
1092.43
1187.92
2130.35
1667.93
1277.44
2225.45
1367.31
2044.01
924.499
2481.53
1297.68
647.379
714.297
682.228
1375.66
1007.11
973.33
849.8
998.461
1875.38
1573.38
618.821
1237.68
857.467
1347.14
867.467
2381.08
868.935
1410.56
1308.75
792.999
1139.78
1385.6
1351.31
1512.26
2165.24
1586.75
1368.13
1905.72
1361.24
1849.38
1298.6
1251.31
785.444
719.373
1091.22
1442.65
1545.01
1170.67
778.163
569.571
1037.92
1218.65
1930.01
1503.74
878.268
1654.49
3550.02
988.769
2657.9
1151.53
1538.33
1272.95
1061.91
852.776
1172.01
676.675
1248.74
818.618
1093.7
800.93
972.455
1043.56
2118.62
978.844
382.388
517.122
421.373
612.661
2157.51
1284.33
599.046
2944.25
2039.65
4206.1
619.732
602.699
518.568
687.308
595.769
607.161
1500.86
911.733
1464.26
622.726
694.866
697.452
2190.11
652.716
1333.67
676.893
639.883
705.691
2242.33
982.624
2281.97
941.605
932.826
2304.51
1267.99
672.535
762.714
1174.81
685.23
561.683
1985.99
1237.46
1089.07
1209.97
2076.21
787.611
779.574
673.797
1369.72
705.233
837.985
2466.42
1151.26
1926.4
1869.21
2060.73
1519.28
831.469
849.024
794.841
490.18
970.684
552.149
787.718
883.313
640.183
867.341
463.233
795.655
514.577
877.331
1486.72
1603.84
1541.17
1314.65
1618.84
1293.46
1345.93
1738.62
1463.82
914.883
1414.29
1313.31
720.07
604.244
1599.42
1085.18
357.598
772.5
748.357
1766.08
1458.97
1833.46
1595.21
1219.65
1542.03
1816.98
1282.28
1209.47
731.559
455.521
742.304
328.739
1089.87
1250.03
1617.87
1821.25
1780.16
1130.15
562.749
125.16
378.759
412.604
219.529
2745.32
2251.31
465.694
1252.63
1761.59
575.693
83.5731
1548.19
816.308
1083.96
2679.4
2128.97
4262.24
4520.38
243.027
2195.35
689.797
532.809
490.297
3112.17
1977.99
985.35
1225.08
2363.79
796.753
766.376
676.425
632.492
660.806
630.805
1616.98
564.232
734.981
782.703
1847.13
914.736
1955.89
684.994
676.919
681.906
2150.06
922.808
2107.07
848.579
734.708
914.829
873.648
853.038
947.676
935.216
951.323
939.064
1529.48
1167.86
1126.65
798.039
844.545
2996.66
2172.85
1660.92
935.683
1508.07
662.803
1251.75
1720.44
1710.72
1263.52
1719.29
1388.6
1637.15
942.466
1416.36
1617.73
1332.3
2181.66
3218.99
1451.36
4033.52
637.518
1854.03
1147.13
3021.24
1347.18
2123.38
1271.73
787.227
2613
858.046
843.078
585.007
655.355
520.815
1505.71
942.802
2996.92
564.846
570.224
827.515
677.356
1293.99
598.73
742.95
1989.02
1614.86
1128.7
1107.11
896.251
1116.15
937.64
3227.4
1434.01
3074.69
827.104
872.909
932.282
1131.89
911.377
1160.75
954.101
1080.46
870.938
1555.89
1836.73
1690.22
1521.1
1327.5
1564.56
1835.2
733.409
856.227
781.325
875.493
506.941
981.158
1479.41
485.85
1091.26
484.012
1843.45
1413.37
1154.78
583.947
1173.95
748.536
1858.34
1268.46
1942.75
2114.49
2348.51
1568.39
731.937
1391.83
1233.24
992.133
951.485
1187.12
1063.07
1068.79
915.099
1113.6
950.296
1233.5
1073.57
735.731
642.144
1353.65
1039.1
1882.73
1437.49
1172.98
1312.3
1519.9
1103.33
1298.9
991.752
1328.36
1460.92
1852.88
1250.02
1075.6
1489.56
2517.66
2596.3
4877.7
1349.54
1814.75
1412.85
1802.35
1221.64
1846.78
1529.66
1254.94
1703.73
1458.34
4368.65
2002.4
2061.84
994.161
1293.94
983.179
1372.42
1326.93
3228.14
851.095
815.497
1657.3
1038.05
759.573
810.391
996.795
737.329
788.597
859.768
715.541
712.273
873.485
1564.05
3229.26
1958.67
3063.32
1198.87
1396.01
833.564
712.803
1285.02
1043.06
1733.9
1572.59
1679.23
743.604
830.952
841.497
783.638
607.238
629.182
707.302
3186.51
1420.15
3580.64
840.57
1036.84
753.662
749.37
904.404
958.371
585.562
1038.9
1356.69
1522.72
1677.78
1525.44
4302.8
889.978
2599.47
901.081
1073.75
697.017
753.332
1243.69
2984.99
1450.38
2848.75
1498.94
2899
3481.32
1849.29
701.426
1452.52
622.209
3149.37
2137.69
1558.94
1920.95
1330.64
894.561
1436.91
3151.11
2589.32
1998.86
2033.78
1492.94
721.593
1096.81
986.487
959.884
1259.38
1644.11
924.556
862.719
954.463
891.563
960.328
1712.03
1299.82
1197.07
2265.03
1088.92
1023.66
1374.93
714.258
1063.89
1143.39
1066.06
1177.21
1243.46
938.874
632.404
772.913
868.932
1034.16
1140.08
1011.58
754.37
1198.67
780.936
671.276
707.359
3580.18
678.463
749.015
676.321
720.487
832.174
869.455
3849.06
905.128
937.679
795.786
953.725
894.561
2603.98
622.481
837.038
703.086
690.938
935.894
1413.3
1159.66
976.505
948.651
910.626
1654.58
1126
1231.93
1022.15
988.461
1032.08
1166.94
1104.04
786.286
1861.76
1747.59
2294.32
3191.43
1404.87
310.537
666.465
2985.12
3126.87
405.284
1392.98
307.842
328.572
339.009
831.346
279.867
1356.79
SCALARS SignedDistance double 1
LOOKUP_TABLE default
52.2697
53.4829
41.6976
37.7635
42.1186
51.0502
56.6397
37.5807
57.3023
50.1563
57.7802
56.0016
115.836
48.9357
62.0672
62.9327
51.9035
30.0217
35.5529
40.4249
63.589
63.7479
47.2101
72.0041
39.5893
38.715
51.6414
55.2165
40.7042
51.3356
51.8624
37.2323
51.6036
37.9596
32.0643
34.0254
48.9078
40.8834
42.1237
51.0935
47.3804
55.8777
69.3211
81.3026
62.4825
51.7175
58.1868
60.344
54.4312
56.3772
49.3594
56.761
52.8725
54.217
63.6391
51.2517
55.9211
59.1042
44.2722
49.6825
44.9725
44.3584
34.1317
38.4344
32.6355
36.6218
49.8128
37.0006
40.923
57.0793
56.1559
51.6708
75.8355
75.9259
74.1614
97.893
57.2661
63.4763
59.8285
48.5157
53.2371
55.7152
54.226
50.1552
42.2169
43.4435
48.8344
43.312
38.9762
40.7516
35.7127
54.0586
54.003
60.2197
55.5987
65.4151
53.9263
46.3685
44.0839
58.2028
35.5976
38.3303
79.6215
44.4191
47.123
36.2097
36.9137
48.4517
36.1844
46.2732
53.2003
62.698
63.7533
46.863
52.7334
44.4222
48.7517
50.4685
27.4467
31.0845
36.2373
46.1972
37.9963
26.2315
43.7462
37.3011
46.6924
56.795
36.5831
32.8773
35.7825
36.4694
54.8352
55.5151
55.0905
42.4301
48.1494
75.963
54.1272
58.21
50.9235
53.8595
49.8384
66.511
56.3951
53.1467
53.7726
37.8195
41.948
42.0834
47.166
33.1781
52.2235
53.5997
44.1371
57.5396
41.1553
43.5626
37.4969
78.9869
61.3151
56.4801
56.7207
62.5548
57.6229
109.526
73.6389
83.4543
64.207
70.7278
64.955
54.1596
56.7313
57.4648
53.4539
55.1449
49.6827
89.8019
60.2227
73.2774
52.253
53.317
49.9839
57.859
55.2135
56.9495
49.193
53.3887
53.1384
63.5823
57.4334
62.165
58.1791
55.3616
59.741
59.5905
51.2019
55.8618
54.7314
52.6586
55.0508
63.6603
60.0918
58.5642
59.4161
63.3732
54.72
56.6933
57.0894
53.356
55.149
50.8741
60.2151
57.0667
59.1699
60.1829
60.5314
53.5222
50.1122
46.7814
45.4584
44.7721
43.7236
43.5338
38.3239
49.8791
45.6049
36.0717
42.1405
37.6605
44.883
50.5392
35.8156
32.6071
35.1975
31.3662
35.479
36.626
35.7325
36.0089
32.4579
52.1758
44.5749
37.1273
44.2213
48.2182
38.7499
38.863
60.8315
42.7185
48.7477
37.955
35.9718
41.423
36.7842
37.0548
35.49
39.0482
58.773
61.5746
55.3671
55.8008
54.3554
63.8828
44.6752
61.2654
54.0609
35.053
49.7098
46.7985
56.1862
66.0895
65.8281
75.184
89.5
61.7742
66.7381
99.846
92.8201
85.3716
73.1732
67.5513
58.6591
56.5402
110.756
65.4411
59.6026
58.3814
85.7479
69.7654
67.2809
78.8759
58.4871
54.6957
60.4862
64.7932
62.0393
63.9788
68.8552
49.3593
51.5859
51.4481
51.9881
47.337
52.863
54.7049
53.2831
52.0221
49.4768
58.9788
54.2634
58.1452
48.1043
52.6204
51.4894
56.8138
54.3343
58.4589
46.8928
47.0563
45.4336
44.8244
41.3586
43.6822
40.2921
52.228
50.1284
43.6761
46.3082
46.326
47.8202
46.1028
39.9003
39.7556
37.2843
38.9289
38.7235
37.9824
36.4103
39.1692
39.9744
42.4764
40.6088
41.3662
56.0748
55.1585
57.05
57.4562
52.9735
55.1792
54.577
67.7029
67.2383
53.3316
55.8873
52.4873
59.4449
59.4153
49.2601
48.416
45.3358
67.2466
54.6986
60.0307
48.7747
50.572
53.228
55.1705
54.214
52.5361
54.4501
58.1776
41.8789
46.011
52.3809
48.9327
46.4201
36.7705
35.7735
40.2753
37.6311
38.767
35.1056
36.6669
77.2571
52.4738
52.6545
47.6584
51.015
61.7884
42.0332
44.8323
39.7089
37.9823
38.8658
42.1573
35.4706
37.9624
37.9219
33.7712
35.3759
34.8524
38.1328
47.0496
41.6925
47.5125
39.5105
52.2043
44.5014
39.5389
52.4267
53.4992
56.2747
45.8439
52.5314
39.5282
55.6047
58.2588
49.7528
33.8662
42.3915
45.3203
45.3245
66.5498
65.5505
48.8798
49.8575
56.1558
39.4982
46.0699
38.4574
47.7649
48.9492
51.619
39.9651
46.3353
42.4491
49.6674
49.4032
49.075
38.5766
36.1034
37.1531
27.6264
26.4881
27.7358
35.6968
33.9972
34.1914
46.5844
37.4104
36.2336
68.2599
36.5206
41.2473
47.2818
39.2573
69.6899
55.9125
33.8058
37.2958
30.3347
31.1733
27.058
37.0996
32.0525
38.4371
69.6862
68.8198
67.5825
71.9786
38.9195
38.1753
49.9673
40.7047
50.4389
44.6386
49.0614
36.9782
34.2429
45.2
38.7762
35.8005
35.0783
38.0589
38.002
35.5934
37.3772
34.5003
36.8107
39.0331
38.9617
65.0428
65.7097
64.801
44.2923
55.9893
46.7671
46.7901
51.1598
43.3987
47.3831
39.8314
48.2258
37.0559
40.3768
39.2979
36.1308
48.5317
43.1529
46.503
74.0928
70.7423
71.1522
80.345
61.9064
56.6642
46.011
66.0754
74.059
56.0949
48.4571
57.5378
50.5585
49.3873
86.3053
64.5884
46.067
49.661
47.6461
46.7494
45.5101
48.6687
49.6881
60.7709
58.2072
72.5062
55.8113
54.1447
57.071
53.8739
56.8658
52.1602
52.6687
50.2208
51.2453
55.3308
53.856
56.737
60.1087
56.7214
53.9726
38.4222
36.83
39.2244
36.2851
38.7332
46.4403
43.1968
45.0758
42.8893
39.0519
46.432
39.7605
43.5919
44.0816
42.9598
39.4761
41.063
38.9475
67.653
39.9945
47.8906
53.5251
52.6027
34.2556
38.3375
34.6599
28.7713
30.8349
54.0198
52.4315
52.7483
51.7495
45.9988
42.8063
46.8145
51.6246
71.3185
45.3631
57.0695
81.0136
75.2777
41.954
48.8533
45.3473
40.0613
40.8838
77.5196
67.7268
85.0036
65.9754
52.4877
45.07
50.0857
51.304
48.0279
44.3379
45.1174
42.6364
37.7658
51.8922
40.1224
45.044
50.1265
46.8215
35.9906
34.8286
36.1103
35.819
40.3142
40.9981
38.9394
36.2769
54.3746
59.8943
54.7018
56.0993
69.6147
61.2695
58.0587
58.9119
63.6137
75.9582
54.7215
60.0935
58.3052
55.9591
55.8974
81.3496
62.3954
71.2808
