# vtk DataFile Version 4.2
vtk output
ASCII
DATASET POLYDATA
POINTS 642 double
-134.423 257.487 0.141799
132.399 267.339 -3.10794
-131.654 -224.836 42.5203
147.295 -232.815 42.9907
1.36045 -176.34 320.797
3.03948 112.781 281.733
3.10412 -81.154 -122.755
2.40005 201.121 -199.85
184.977 59.8289 -117.548
182.397 4.1469 210.557
-159.99 58.4023 -117.117
-160.641 8.53443 208.55
-164.321 159.368 60.6373
-101.632 70.2969 273.049
-39.6261 164.37 128.649
48.8711 166.384 134.617
1.27371 307.079 -18.0851
91.4817 303.604 -105.558
-79.2367 297.037 -102.467
-123.935 121.159 -194.304
-203.132 192.237 -41.4998
-170.149 23.9706 38.2457
112.027 74.4372 279.197
144.666 136.698 69.5067
-126.493 -99.1632 296.483
6.38907 1.99572 360.53
-167.29 -133.023 -15.2155
-156.232 -141.355 189.977
4.433 58.1793 -240.714
-102.719 -2.31369 -175.073
198.738 193.927 -51.5023
134.356 123.729 -197.944
179.483 -143.859 195.04
141.612 -100.257 300.76
101.627 -247.465 243.132
-93.4998 -243.848 241.939
0.36178 -252.087 41.3276
-85.6446 -214.996 -66.1479
97.6421 -217.42 -68.0354
112.989 -4.97008 -177.943
182.294 -143.725 -17.8189
190.251 6.97553 57.3548
-161.596 211.653 23.4478
-119.154 148.61 79.771
-109.495 242.432 26.927
-139.368 39.656 245.628
-124.671 81.7843 212.477
-146.591 55.4486 182.342
-23.0566 134.305 236.774
-75.2219 111.877 237.531
-50.8723 96.0981 285.659
-34.1292 267.921 30.0603
-59.2427 301.335 -12.8161
33.0383 136.976 236.274
5.73126 165.687 140.519
72.7961 305.629 -13.2447
45.2653 268.281 30.3619
105.856 247.625 24.3775
-47.7172 329.768 -53.3848
-105.65 290.132 -48.5577
113.344 305.529 -53.5635
57.2361 331.068 -53.6093
-43.3883 256.636 -161.813
2.04133 306.381 -109.449
50.5638 258.355 -163.501
-161.502 241.574 -75.8316
-178.795 231.05 -22.9205
-71.4592 161.832 -208.427
-109.767 215.305 -149.32
-184.763 165.175 -67.1113
-174.069 175.244 -106.036
-154.88 85.0483 -153.939
-193.602 190.348 -2.32241
-157.466 78.3326 -24.9411
-205.109 167.076 -31.2516
-151.3 158.613 43.3355
-163.504 4.06572 141.815
106.555 156.407 97.1943
161.235 221.167 17.4508
61.781 97.4484 288.923
84.0821 115.796 241.932
168.755 49.379 185.708
135.473 82.994 221.543
153.366 40.9103 251.249
-52.9928 44.2049 324.609
4.30314 66.0251 327.087
-148.707 -49.5256 255.614
-116.844 8.3774 294.422
3.09358 -53.9393 353.576
-58.2617 -33.7363 338.124
-78.4801 -144.21 324.476
-173.727 -53.4022 100.324
-159.754 -73.7387 209.847
-150.073 -53.5138 -56.817
-174.422 -72.196 14.0317
-144.707 -158.298 117.57
-171.297 -139.121 33.6408
-157.808 -185.084 7.29858
-125.119 53.9787 -196.879
-145.771 27.7478 -144.829
3.54758 111.034 -241.984
-72.4708 89.661 -234.037
-68.2515 -46.5797 -159.446
-67.3319 18.985 -218.151
2.21776 -1.55718 -213.747
117.861 221.377 -155.471
77.8175 164.661 -210.014
181.109 236.767 -24.5568
166.613 250.277 -81.2477
175.229 82.818 -158.901
179.983 174.103 -114.845
187.939 135.608 -76.887
163.017 -168.58 116.837
164.101 -201.004 215.016
123.377 -235.749 176.844
167.442 -49.7086 260.793
180.315 -129.893 247.972
183.497 -78.3395 209.837
63.3398 -222.482 306.229
131.085 -187.111 294.562
86.1238 -148.999 325.303
59.9401 -258.42 189.333
93.922 -255.69 42.3936
-57.1839 -220.763 303.714
1.58528 -249.908 244.81
-82.4656 -254.043 43.0627
-54.8107 -257.152 187.395
-110.903 -233.488 172.413
65.2271 -253.592 -19.0744
129.959 -240.294 -19.1992
-116.546 -233.935 -16.8964
-59.1228 -253.509 -18.7047
61.7377 -173.67 -97.2466
0.789218 -213.737 -66.9441
-54.3179 -172.7 -97.8902
156.089 -190.256 -48.6437
179.165 -194.9 4.82974
74.4027 -48.4877 -161.577
106.966 -158.431 -96.1263
170.451 -45.0693 -58.4809
153.986 -109.228 -68.8891
162.983 27.691 -148.227
186.975 -145.827 34.3061
171.596 59.0687 -46.558
190.569 -83.0876 16.8823
189.327 -56.5308 104.255
186.279 8.5101 153.495
64.0269 -28.2844 347.257
127.65 7.55865 301.525
61.6195 43.641 330.691
-145.074 -191.758 215.971
-121.845 -182.178 288.65
-157.001 -132.043 243.678
-95.8366 -153.083 -94.6155
-139.001 -183.231 -44.1228
-142.743 -101.446 -66.2521
138.388 54.1593 -200.49
72.8935 17.9177 -220.13
75.1916 89.5442 -237.566
179.81 85.5851 47.5103
195.904 161.048 -28.2019
188.451 196.165 -9.80637
-149.857 235.49 12.3435
-137.034 229.323 26.2658
-121.726 250.762 16.4159
-148.539 142.798 64.7165
-150.005 205.662 34.2401
-167.967 188.543 30.4509
-81.5643 226 43.6288
-124.577 221.238 37.5106
-81.7626 156.887 103.927
-152.087 24.3002 227.168
-146.87 45.5373 215.894
-155.469 29.3087 200.068
-116.556 76.3489 244.581
-132.998 62.571 231.78
-122.731 55.0357 260.99
-136.232 120.353 121.29
-137.129 69.8951 197.265
-127.89 98.6629 148.568
-10.3217 125.181 259.655
-37.2717 116.804 262.765
-21.1192 105.391 285.392
-60.1625 128.519 214.466
-49.7461 124.106 238.88
-33.7011 140.017 214.466
-77.0469 84.3743 281.455
-65.1754 105.774 262.079
-88.7252 93.8979 257.172
-110.674 108.296 171.134
-103.039 97.9106 225.882
-91.8017 115.928 196.736
-82.8729 268.542 7.95467
-95.0602 278.905 -8.82889
-38.3248 236.498 56.4709
-63.847 256.74 26.2722
-39.3279 308.847 -14.1032
-47.6586 287.889 5.98126
-25.8298 291.074 7.82761
17.8316 126.054 259.703
4.08699 137.585 238.455
31.5712 165.528 140.96
18.8319 146.717 216.521
44.7168 144.348 213.52
-8.21333 145.652 217.21
-17.1404 166.197 137.877
97.4824 290.757 -10.5818
86.7412 279.324 5.86738
120.242 259.791 11.395
32.5172 289.871 6.37165
61.8032 290.547 5.49483
49.5985 310.619 -15.4801
78.7894 226.186 52.9902
69.4894 263.667 25.8909
46.5974 236.248 60.0099
-11.5715 236.394 68.0132
18.6967 235.42 69.8037
1.04736 267.14 36.6675
-80.3333 302.395 -33.6744
-124.881 275.197 -24.6403
-27.601 323.225 -37.297
-52.816 319.33 -37.4426
-93.3799 301.494 -73.2631
-70.9993 319.116 -54.6149
-65.1106 322.761 -74.3204
121.185 287.939 -32.7509
92.0171 311.738 -36.0135
77.0388 327.163 -75.9235
86.4747 324.443 -54.7399
106.252 311.66 -74.9332
65.9213 321.949 -37.1361
34.2095 323.248 -38.061
-21.2602 231.777 -184.555
2.19159 259.34 -167.37
26.4364 232.748 -185.613
-47.3778 308.67 -111.008
-25.1196 284.909 -137.966
-62.1436 280.445 -131.719
73.0121 284.272 -133.582
30.5333 284.677 -137.912
55.782 310.188 -111.112
2.55529 327.854 -53.3502
33.3586 328.965 -78.7031
-27.3808 328.846 -78.6002
-153.223 260.34 -31.9927
-158.933 246.627 -12.9923
-120.704 270.124 -88.6251
-138.075 268.765 -59.3342
-197.784 209.926 -31.8011
-174.691 239.328 -43.771
-189.153 213.665 -58.395
-37.3687 183.124 -204.997
-56.1426 215.149 -186.417
-116.34 167.835 -172.786
-87.7706 191.032 -182.568
-100.325 140.416 -205.53
-75.119 239.909 -159.825
-93.7328 256.833 -126.552
-165.004 100.317 -96.1261
-165.935 118.278 -109.057
-160.622 70.2659 -133.769
-191.049 186.249 -74.2819
-181.538 171.864 -85.3077
-197.425 188.075 -50.2253
-141.37 102.865 -176.111
-159.321 133.406 -128.011
-144.805 145.106 -149.825
-141.668 233.378 -112.42
-150.102 193.41 -129.839
-175.211 206.797 -94.8246
-171.162 223.696 -0.000777922
-199.829 194.772 -26.8616
-192.11 205.833 -12.8142
-180.069 199.089 13.5935
-179.51 182.797 20.9593
-161.763 66.3387 -92.616
-174.855 134.572 -52.0904
-194.633 126.894 -13.795
-198.715 138.71 -18.3444
-179.51 59.2022 18.3529
-203.143 174.777 -34.3653
-199.613 185.477 -34.1899
-155.955 32.0427 173.188
-161.46 8.98622 189.178
-167.48 165.802 51.8116
-145.678 83.1743 114.11
-171.138 3.17178 85.37
-159.021 44.7943 108.8
-170.364 74.3143 21.3173
-197.031 193.181 -26.5622
-189.017 169.428 -22.7535
-193.055 188.841 7.15854
138.986 235.441 23.8946
152.243 240.878 10.8898
76.5772 162.697 118.789
119.342 221.845 39.7868
162.656 204.18 21.1404
146.274 215.709 30.4804
129.292 148.554 78.7599
29.6628 105.584 286.296
47.5923 118.333 263.902
98.7723 97.1768 262.939
75.8469 108.246 265.785
87.4348 87.3723 286.53
60.0479 127.943 239.787
67.4178 134.621 216.57
178.014 27.1644 198.738
163.498 44.8458 218.945
170.186 20.9441 231.124
140.631 92.3841 176.295
153.124 67.9666 203.744
153.212 79.5244 157.282
134.238 59.226 267.323
144.967 64.4666 238.681
127.012 79.5898 251.959
96.6486 121.66 207.743
111.793 101.216 234.033
121.49 107.498 192.26
-22.2499 83.8427 307.987
3.24242 92.9519 305.132
-80.9256 60.8396 299.456
-54.0465 72.7789 306.397
5.52313 33.4306 346.628
-22.7383 54.2258 329.765
-20.9905 22.9665 346.986
-156.356 -18.1988 233.25
-146.212 7.0422 251.746
-121.034 -44.0421 294.633
-135.591 -19.0476 274.818
-141.832 -75.0165 276.792
-130.241 26.942 271.108
-111.889 41.9047 285.259
-1.43042 -121.297 325.644
-43.0978 -106.14 329.914
-49.2637 -161.218 326.916
-18.9336 -9.23682 357.97
-25.7378 -42.1497 350.632
6.28835 -17.6139 366.543
-104.487 -123.401 313.074
-74.0847 -89.7285 328.443
-97.6947 -71.1233 318.188
-87.3811 27.5744 312.64
-92.0216 -14.1264 319.004
-53.1274 8.61159 338.559
-162.327 -21.3119 176.913
-161.153 -29.8414 207.842
-176.551 -21.248 74.7644
-172.655 -22.3391 116.771
-158.431 -116.017 201.797
-161.202 -64.3654 163.597
-160.232 -98.2084 149.957
-151.993 23.1069 -104.959
-154.013 -1.34667 -52.4728
-172.669 -106.961 -0.311861
-170.029 -75.4122 -8.75448
-163.925 -106.665 -26.2949
-169.944 -24.68 12.2693
-175.867 -23.9401 35.6826
-138.586 -206.199 70.5144
-156.863 -185.053 38.4843
-148.08 -207.487 21.9956
-150.79 -151.56 108.736
-160.601 -160.316 62.1508
-149.176 -157.956 167.311
-166.123 -158.985 -5.14412
-168.484 -160.35 22.3746
-172.652 -137.047 10.618
-175.368 -61.3492 44.5478
-174.147 -109.224 20.8215
-170.512 -97.404 61.7966
-152.785 54.775 -153.208
-153.906 41.3848 -131.272
-126.941 85.7431 -198.861
-141.344 69.6434 -178.876
-129.849 17.4012 -162.132
-136.682 40.7219 -173.162
-117.958 26.8783 -187.916
2.42702 151.704 -223.611
-39.2329 137.311 -229.083
-35.6856 73.0488 -241.232
-37.2514 100.307 -241.045
5.00572 83.6064 -247.895
-75.2513 121.678 -228.092
-101.593 107.018 -219.392
-52.6432 -58.8255 -146.357
-34.9112 -16.1871 -198.983
2.84172 -21.0195 -194.264
-88.2515 7.08139 -198.28
-63.7188 -5.94739 -199.727
-78.3098 -25.8055 -172.702
2.53428 23.5674 -229.566
-36.1309 7.31287 -218.873
-37.2661 34.2736 -232.231
-103.352 70.5468 -219.687
-72.0113 52.436 -231.315
-98.6725 36.7016 -212.368
[...]
POINT_DATA 642
SCALARS Mean_Curvature double 1
LOOKUP_TABLE default
0.0180752
0.0188181
0.0149144
0.0154746
-0.00542744
0.0170116
-0.0127718
0.00236498
0.0286411
0.0162223
0.00860365
0.0209455
0.167229
0.0117139
-0.000709151
0.00396706
-0.00474524
0.0170888
0.0120775
0.0125022
0.0806887
-0.00877288
0.0134504
6.02608e-05
0.00913681
0.0143141
0.0111432
0.00609995
0.00249858
0.00609904
0.0112172
0.0105679
0.00843699
0.0106889
0.0124507
0.016424
-0.00203317
0.0165007
0.0167412
0.00628324
0.00795272
-0.000864747
0.0180682
-0.00711072
0.00822079
0.0119549
0.00926866
0.00338702
0.00929601
0.00690332
0.0121976
0.00828039
0.0134089
0.0100221
-0.00406625
0.0178663
0.00741208
-0.00279372
0.0367132
0.00492866
0.0242266
0.0305231
0.00973356
-0.000628059
0.00962234
0.0119101
0.0183219
0.00778888
0.00250366
0.00335167
0.0186245
0.0116468
-0.0781932
-0.0156464
0.178882
-0.0284354
-0.00103528
-0.00119088
0.0224976
0.012726
0.00694213
0.00805639
0.00532743
0.0111366
0.00913709
0.012896
0.00251592
0.0117112
0.0075686
0.00462645
0.0119703
0.00498952
0.000404147
-0.00063242
0.00882537
-0.0291436
0.00760556
0.010209
0.0173595
0.0204684
0.00765837
0.0124433
0.023595
0.0137692
0.00840495
0.00559319
0.0057469
0.0221083
0.0162945
0.0178382
0.00900448
-0.00871187
-0.0275205
0.0220528
0.00843983
0.00395129
0.0197523
0.00324123
0.0174453
0.0143789
0.00944987
0.00730519
0.00886028
0.0172147
-0.00849858
0.0117927
0.0065856
0.0139695
0.0123975
0.0182089
0.017854
0.0148976
0.0090354
-0.00452143
0.0101707
0.0163202
0.0264781
0.0220865
0.0130938
0.0021644
0.0130078
0.0119259
0.00171174
-0.0122621
-0.00474499
-0.000530347
0.00901123
0.00757629
0.00823144
0.00952594
0.0116178
0.0146039
0.0154187
0.01029
0.0116285
0.0213754
0.0157089
0.0126593
0.0105894
-0.0071721
0.00850315
0.00437328
0.0145668
0.0124949
0.0173521
-0.0479689
0.00769219
-0.00289503
-0.00510433
0.00780902
-0.00344009
0.0121037
0.0116719
0.00911061
0.0120863
0.012858
0.0120224
-0.0590425
0.023322
-0.028811
0.00991597
0.0097011
0.00793856
0.00432416
0.00795943
0.00759116
0.0117841
0.0113731
0.0113484
0.00475176
0.00889969
0.00759956
-0.000388727
0.00546955
0.00116356
-0.000721363
0.0175535
0.00781254
0.00805196
0.00911975
0.0100147
0.000770985
0.00876117
0.0126229
0.0108003
0.00365039
0.0107156
0.00349606
0.0118962
0.000211175
0.0126797
0.0132849
-0.00303502
0.00164927
0.00374931
0.0099676
0.00815714
0.00590662
0.00873154
0.0150129
0.0158937
0.0127757
0.0175626
0.0262233
0.0261198
-0.000177544
0.0124909
0.0249578
0.0332426
0.0241092
0.0136087
0.010475
0.00894762
0.00971003
0.00931089
0.017914
0.00625041
0.0101973
0.0117074
0.00256304
0.0130824
0.0122939
0.0172852
0.0199598
0.0253012
0.0117925
0.00695159
0.0129923
0.0370036
0.0177481
0.0141471
0.00210484
0.0115818
0.0037884
0.00569572
0.0108397
0.0097735
-0.000125084
-0.00102047
0.00748784
0.0162166
0.0424526
8.37347e-05
-0.0342661
0.00981316
0.00424724
0.00331762
0.0106609
0.00910865
0.0161902
0.00863798
0.107157
0.0184564
0.0246656
-0.0856812
0.00436924
-0.0117244
0.131362
-0.0104929
0.0352
0.0145442
-0.0628154
0.00284947
0.00942786
0.090693
-0.00416677
0.00361023
0.00230489
-0.0121696
-0.0387933
-0.0248393
0.0876708
0.0170591
0.0169129
-0.000298659
0.00329234
0.00666886
0.0117044
-0.00112954
0.00571166
0.00793828
0.0122441
0.0119961
0.0136001
0.00959256
0.00604022
0.0143493
0.00770842
0.009024
0.00602525
0.00671757
-0.000164365
0.0139853
0.0104839
0.0128061
0.00581103
0.00832394
0.00546926
0.00841778
0.0157895
0.0113714
0.0114366
0.0114502
0.00863337
0.0113212
0.00956953
0.0108832
0.00270402
0.00798823
0.0127895
0.0124961
0.0123101
-0.00528538
-0.000184596
0.00762737
0.0176632
0.00723681
0.033301
0.00821934
0.00900711
0.00904515
0.0100781
0.00856963
0.0101259
0.000450774
0.00599308
0.00882375
0.00867522
0.00116364
-0.00259979
0.00033042
0.00796461
-0.00232949
0.0119895
0.00647728
0.00444854
-0.00316463
0.0173205
0.00765753
0.00668567
0.0159519
-0.0167329
0.0466294
0.0303991
0.0161137
0.0157425
0.0159244
0.00362722
0.00694181
0.000747542
0.019046
0.00983861
0.0134108
0.0138562
0.00767353
0.0122038
0.0124157
0.00173282
0.0081235
0.00929416
0.0121071
0.0207797
0.0152199
0.017668
-0.00736012
0.00969481
0.00138951
0.0124816
0.00932198
0.0253552
0.00877682
0.0130998
0.0105783
0.016455
0.0155878
0.0160472
0.00913974
0.0023258
0.00199651
0.0090985
0.010209
0.00894741
0.00500087
0.0143773
0.0176254
0.0214158
0.0100505
0.0247002
0.0103783
0.00646799
0.0222803
0.0113392
0.0271192
0.00147029
0.00518299
0.00978661
0.0178345
0.0124142
0.0169677
0.00959069
0.0170643
0.0055895
0.00930322
0.00203371
0.00617486
0.0172934
0.00695347
0.0167671
0.0164816
0.0135196
0.018413
0.0124666
0.00855465
0.00960797
0.0120013
0.014912
0.00556801
0.00115369
0.00741697
0.00947453
0.020985
0.0222325
0.00518228
0.0150012
0.0176994
0.0180282
0.00657742
0.0141741
0.0113696
0.0185276
0.0157878
0.0119156
0.0130948
0.0132295
0.0168798
0.00814528
0.00652505
0.000838459
-0.0110736
0.0243129
-0.00638195
0.0114804
0.0172826
0.0172342
0.0144969
0.010732
0.0112435
0.0126279
0.00669908
-0.00421742
0.00410785
0.00773536
0.0111184
0.0112837
0.0183262
0.0284453
0.0306719
-0.0100686
0.0195035
0.0161839
0.011048
0.00661046
0.0176308
0.0198287
0.0125777
0.0161322
0.0180657
0.0171894
0.0200277
0.0164799
0.0140054
0.0092369
0.00058976
-0.00787444
0.00463785
0.0100318
0.0116053
0.00747951
0.0130243
0.0138464
0.0115434
0.00116049
0.014162
0.0120371
0.017932
0.0158786
0.0145831
0.0162076
0.011662
0.0204918
0.0143604
-0.00600688
0.013663
-0.00677369
0.00286507
0.0194409
0.0209443
0.0163612
0.0104021
0.0371649
0.0147224
0.00938074
0.00259753
0.0052176
0.00670172
-0.0060768
-0.0108512
0.0160203
0.00556854
0.01291
0.0150109
0.0131524
0.0025955
0.036087
-0.0111702
0.00408693
0.00069362
0.00338409
0.00111315
0.00759015
0.0058406
0.0143074
0.000957277
0.0153281
0.00254906
9.19411e-05
0.00101394
-0.0011087
0.0221103
0.0273764
0.00320733
-0.000180346
-0.00289916
0.00468211
0.00419951
0.0133172
0.0229774
0.00822735
0.0118763
0.00963732
0.00953068
0.00809777
0.00584095
0.0124218
0.00832363
0.0119591
0.012162
0.0102336
0.00864309
0.0140396
-3.44239e-05
0.012324
0.0138175
0.0110822
0.0165826
0.0188669
0.0104372
0.0165322
0.0153685
0.0171607
0.0128698
0.00489271
0.00323381
0.01487
0.00983634
0.0174671
0.0187815
0.0187084
0.0153371
0.0126912
0.0255561
-0.0194142
-0.0100035
0.0190701
0.0125561
0.0134112
0.0161316
0.0137112
0.02775
-0.0112107
-0.0357641
-0.00043293
0.0110767
0.0126293
0.0141082
0.00625868
0.0128842
0.0122201
0.0115798
0.0182487
0.0148452
0.00868529
0.00908941
0.0120097
0.0090146
0.0121537
0.00737831
0.0155473
0.0115683
0.0160694
0.0164576
0.0145688
0.0116483
0.0155877
0.00705698
0.0273355
0.00376843
0.00204712
-0.000125203
0.00380441
0.0269577
0.0221042
-0.00309786
-0.0205996
0.0207102
0.00297152
0.0210492
0.0292483
0.023458
0.029212
0.0287745
0.0194558
SCALARS CoVolArea double 1
LOOKUP_TABLE default
748.187
820.354
1058.77
1130.33
1699.83
648.598
3989.28
1619.63
426.279
718.681
676.941
622.555
659.677
878.326
3466.68
2412.81
1395.87
1412.04
1463.73
1398.8
375.169
1431.76
894.838
2325.43
1534.37
779.794
777.052
1503.67
1343.85
2345.95
651.926
1548.82
1517.67
1709.59
1546.91
1375.73
3392.84
938.31
1008.56
2455.9
953.152
2041.13
556.941
3026.45
907.573
762.265
1091.91
1503.81
702.213
918.789
896.11
1184.17
859.61
754.655
2331.28
717.762
1313.82
1109
774.912
1073.6
856.005
883.542
1545.84
2013.72
1656.02
1503.7
680.861
1615.63
2076.16
1201.37
1210
1166.55
246.302
4320.31
276.382
3942.31
1736.01
3058.99
429.259
939.927
859.117
996.475
999.29
928.992
1244.92
1022.81
1252.57
1365.02
2261.8
1844.11
1436.78
2351.44
1403.85
1973.79
1056.97
2356.36
1410.29
800.206
892.982
831.121
1540.87
1198.12
997.33
1026.41
1142.92
2011.48
1715.48
832.55
1460.35
1051.77
1541.55
1045.01
2270.11
1092.45
1609.47
1466.76
989.96
1210.36
1599.41
1569.59
1647.51
2208.5
1765.22
1578.46
2115.54
1569.45
1961.18
1510.48
1437.96
973.532
901.514
1280.09
1491.87
1711.54
1253.24
969.548
741.936
1114.88
1446.89
2090.93
1655.12
1030.5
1762.1
3360.03
1086.48
2743.81
1267.98
1727.53
1441.35
1231.08
1045.86
1401.51
837.495
1544.97
991.5
1411.69
984.597
1148.39
1233.43
2145.77
1043.75
472.732
663.257
532.204
752.335
1929.72
1261.88
689.432
2856.84
2033.94
4163.61
768.055
718.326
611.129
835.852
727.242
751.088
1583.89
1074.93
1340.85
743.019
818.76
830.455
2291.35
758.659
1475.28
821.541
766.915
849.247
1951.64
1114.54
2367.99
1020.48
1079.78
2344.63
1274.34
801.589
855.717
1290.85
805.026
680.726
2145.63
1355.7
1248.71
1343.71
2275.79
923.005
861.207
803.339
1469.13
813.804
952.881
2451
1186.45
2045.47
2072.86
2238.22
1684.35
985.249
1029.44
968.018
640.715
1176.35
733.499
1033.78
1037.19
788.858
1125.59
660.921
1016.27
671.758
1043.39
1623.9
1747.99
1675.25
1521.61
1751
1439.15
1496.27
1859.46
1660.51
1198.83
1698.59
1600.39
919.862
758.879
1777.38
1299.68
577.159
1000.74
1040.65
1873.74
1615.66
1977.04
1731.47
1382.22
1671.42
1934.27
1323.46
1338.22
875.352
670.214
855.089
347.253
1248.41
1429.14
1800.02
2009.85
1990.31
1399.69
705.805
206.871
537.729
513.337
316.859
2565.49
2241.94
791.274
1371.14
1969.3
671.022
117.07
1575.69
908.876
1198.63
2726.07
2151.66
3894.5
4114.18
272.373
2135.43
791.732
634.708
665.965
3255.35
2052.06
1091.25
1386.88
2507.17
923.81
891.563
817.919
761.986
812.306
750.874
1767.22
691.822
858.75
928.877
1952.85
1010.56
2021.5
836.012
800.057
822.327
2297.45
1047.85
2258.2
995.097
874.233
1081.72
1024.04
993.824
1095.08
1100.21
1118.9
1097.84
1697.36
1328.67
1296.65
956.271
1014.42
2947.68
2273.18
1751.43
1119.65
1694.58
856.586
1417.46
1890.65
1884.74
1455.31
1900.61
1574.44
1692.43
1053.62
1542.02
1735.5
1353.98
2221.62
3114.59
1450.29
3857.49
762.477
1923.33
1190.15
3073.32
1527.32
2073.14
1387.95
946.479
2667.35
1161.3
1090
738.126
802.884
659.25
1650.19
1072.7
2964.84
725.602
660.08
1009.63
844.076
1567.51
751.833
895.996
2075.41
1755.81
1298.16
1283.59
1070.26
1291.34
1132.86
2867.84
1493.6
2911.12
978.667
1040.83
1144.57
1282.03
1070.76
1330.03
1171.36
1289.07
1074
1704.25
1937.6
1829.42
1666.1
1488.33
1715.34
1974.38
926.331
1059.68
1010.88
1087.69
709.81
1190.06
1664.37
662.969
1280.71
659.289
1977.77
1605.94
1319.5
719.926
1326.39
951.303
2049.66
1515.4
2113.77
2105.05
2257.87
1824.82
865.255
1437.77
1386.47
1171.41
1105.31
1427.81
1235.18
1222.29
1056.15
1310.53
1113.93
1390.3
1131.45
844.901
766.982
1552.54
1234.67
1951.19
1670.68
1387.48
1517.26
1666.9
1284.98
1489.61
1247.24
1585.48
1742.34
2129.14
1458.12
1282.87
1688.21
2530.61
2688.24
4525.53
1547.98
2014.21
1642.88
1971.98
1430.41
2013.87
1753.82
1462.88
1994.05
1705.77
4139.85
2207.48
2153.83
1172.04
1518.38
1188.37
1628.18
1580.87
3143.87
1027.81
997.858
1823.32
1190.2
939.463
986.673
1182.86
910.973
965.735
1052.34
894.772
887.269
1035.68
1728.95
2910.71
1986.11
2762.73
1367.93
1534.99
983.735
873.519
1428.45
1217.16
1946.91
1774.66
1880.26
942.224
1026.96
1041.43
974.391
742.096
810.321
862.28
2889.61
1250.15
3460.06
965.377
1236.4
926.455
938.28
1088.1
1108.88
734.736
1182.46
1517.24
1609.69
1742.85
1637
4033.16
1087.17
2602.44
1067.57
1241.76
853.878
869.809
1428.45
3023.42
1449.27
2898.2
1608.91
2880.17
3324.89
1970.16
844.447
1519.9
747.219
3119.54
2170.51
1665.3
2021.97
1487.52
1072.48
1596.62
3185.13
2668.38
2169.88
2178.1
1685.91
914.026
1248.35
1159.31
1114.94
1411.27
1821.12
1063.33
1028.93
1096.39
1043.32
1135.7
1904.26
1487.49
1396.51
2180.5
1297.01
1181.37
1433.56
836.234
1263.18
1332.36
1254.12
1393.33
1474.05
1079.35
721.451
860.95
1036
1231.69
1397.47
1250.17
958.35
1018.29
960.514
879.217
929.612
3429.67
848.938
911.855
834.839
889.431
1009.9
788.965
3810.8
1279.57
991.29
957.638
1137.82
1071.43
2572.61
787.912
994.761
851.155
865.548
1129.53
1497.07
1323.11
1132.9
1116.38
1071.81
1789.99
1318.7
1398.57
1203.35
1163.83
1235.68
1369.13
1318.83
899.435
1965.57
1928.17
2296.28
3045.54
1419.48
451.076
780.208
2712.7
2913.33
585.044
1424.09
404.296
493.464
496.894
951.46
438.311
1344.91
SCALARS SignedDistance double 1
LOOKUP_TABLE default
67.6256
67.6294
54.7891
50.0948
52.5652
66.911
74.2521
49.5241
74.1836
65.9547
75.5585
73.6386
126.03
65.0621
81.615
81.8148
67.0617
41.048
46.105
53.3892
79.5608
81.317
62.3262
88.2487
52.4276
50.9908
68.1345
71.8676
53.2272
67.1483
67.3707
49.2178
66.8485
50.358
41.5003
44.8916
60.6457
54.0385
54.8958
66.3861
62.4478
72.9577
82.4069
97.0806
79.8825
68.236
76.8154
78.8571
72.0258
74.0427
65.1252
74.6271
68.8788
71.0145
83.7359
66.9959
73.5503
77.4508
57.2055
62.1878
58.3662
57.5477
45.0571
49.0539
43.7316
48.4724
64.1105
48.521
52.3895
74.2348
71.3914
65.7147
88.7004
91.9927
94.0074
105.672
75.1452
81.735
76.8313
63.6965
70.5515
73.2264
71.805
65.362
56.1139
57.7262
64.1838
57.6504
50.3086
52.5972
46.761
70.8065
71.0031
78.2329
72.9775
77.6532
70.7297
61.1032
58.1665
74.6413
47.2243
49.4925
88.8084
58.3667
61.7592
47.8234
47.978
62.4993
47.7043
58.7959
65.7245
79.0752
77.2131
60.1054
64.7554
58.2537
62.8868
66.3319
35.9732
40.7504
47.2175
59.6789
49.847
35.2301
53.5421
49.4011
59.7649
68.9787
48.6477
44.6311
47.9261
48.4123
69.4474
67.8473
69.5293
55.7854
61.6198
88.0549
68.1872
74.2023
67.5957
68.8869
65.1124
83.2988
73.4653
69.0666
71.0092
49.3861
55.6187
54.9694
61.296
44.0445
68.0733
67.704
58.2204
74.9851
54.4877
57.1228
49.1459
86.705
79.5112
74.8623
72.9081
78.5857
74.4451
112.563
88.5884
97.3181
82.5332
85.6911
84.0517
70.9774
74.3169
75.5377
70.6709
72.3231
65.9576
96.1022
78.7273
84.5204
69.2902
69.8852
65.9148
76.0853
72.8971
75.0224
64.8167
69.9858
69.9497
83.601
75.6528
81.0872
75.7165
71.8895
78.3753
77.7309
66.9662
72.713
71.0381
69.3913
72.393
83.7898
77.1166
75.1613
76.143
83.0585
70.2684
73.7022
74.6029
69.7168
71.6902
66.3504
78.6695
75.0524
77.4955
78.762
78.5323
70.8067
64.537
61.3288
60.137
59.9496
54.0134
57.7075
48.6401
63.3705
59.9588
45.2617
55.3966
47.9898
59.5195
65.043
46.9769
43.7139
46.4388
41.8727
45.8753
47.0216
45.4862
46.6581
43.1218
64.7859
54.2428
47.0536
57.9225
63.5771
48.8844
50.9556
71.426
54.9879
57.2278
49.5025
47.2798
53.8644
49.1608
49.3269
47.0245
50.4668
76.4054
77.9248
72.6501
71.8981
71.2843
74.5441
58.7533
75.6453
66.5828
47.6306
61.3655
58.3502
70.9537
81.2476
77.5098
88.4725
97.4357
79.6695
84.0494
113.985
107.515
100.596
88.1951
80.8202
77.0927
74.6473
120.464
82.8899
77.6205
76.8598
97.3201
79.3574
83.1801
95.4419
76.02
70.7353
79.2922
83.1583
80.5428
81.574
86.2551
65.1579
68.0006
67.5676
67.9
62.6918
70.1963
72.5705
70.0743
68.7759
65.528
77.2127
71.7633
76.4062
63.2208
69.2122
67.87
74.0633
71.4911
76.0084
61.7708
62.1879
60.3035
59.8508
54.4514
57.489
53.444
67.3445
65.8491
57.3639
60.7314
60.5042
63.0669
61.2264
51.874
51.8112
48.9094
50.8062
50.5223
49.1984
48.4018
50.3727
53.0447
56.4559
53.7022
54.2932
73.6456
72.4303
74.9857
75.1559
69.6385
72.3508
71.4528
84.9442
83.9859
69.6958
73.218
69.4756
77.2873
76.942
63.4763
63.3216
57.9821
77.9895
70.4894
76.3107
63.7203
65.289
69.6852
72.5257
71.2678
69.5081
69.5638
76.0308
54.8608
60.3449
67.7887
64.1172
61.4804
48.6379
47.4
52.3644
48.6011
50.6484
46.0878
48.7385
90.4903
67.221
68.2461
62.5523
65.6479
76.3494
55.8037
59.1018
53.067
50.7908
51.7278
56.3537
46.5133
49.004
48.967
45.0929
47.1171
46.6879
50.4067
61.945
55.0864
59.5785
52.1861
66.2162
55.0111
48.3119
67.6209
68.7744
73.5867
58.6176
65.2833
52.3439
71.7343
72.814
63.5786
44.8975
54.2602
56.6722
59.0022
78.6763
76.0124
64.3211
64.7714
71.3308
51.7271
59.2901
49.0525
61.8291
63.6691
67.6674
52.2327
59.9962
55.5774
65.2829
64.874
64.396
48.57
46.251
48.6836
36.7933
35.331
35.3983
46.8914
44.4849
45.6567
59.6038
48.5932
46.6388
77.5202
48.5442
52.9447
58.9696
51.667
79.2502
71.8834
43.5938
46.0067
40.3374
40.3563
35.6471
46.1998
41.6063
50.9523
79.0106
79.7744
78.9243
80.7282
51.1391
50.1745
61.7903
51.9662
62.8371
57.463
61.8219
47.8222
46.088
57.0251
50.975
47.8338
46.886
50.4837
50.7129
47.593
49.3707
46.3546
49.4697
51.1172
51.2397
83.6868
81.3067
82.5941
57.7151
69.9815
61.1156
60.8231
65.239
56.8089
58.5803
52.6591
60.4869
48.6744
52.5814
51.8609
48.6798
63.0349
55.8687
61.2489
88.7662
84.0966
84.9892
87.7057
76.4997
71.6566
59.4993
83.1607
89.8295
71.5924
64.102
71.9468
66.6613
64.6802
94.56
78.6223
59.9516
65.6043
63.1824
59.6596
60.4618
63.6017
64.5888
72.8633
76.0044
87.1998
72.8375
70.7902
74.3091
69.9915
72.946
68.5947
69.6956
65.8801
67.3638
72.4209
70.6415
73.208
77.1149
73.7261
70.3501
50.0277
48.7372
50.7492
47.648
50.506
61.2349
57.3412
59.2558
56.5097
51.9301
61.3084
52.7329
57.3143
58.056
57.3298
52.0043
54.2102
51.6653
80.1922
52.1251
61.1821
69.386
68.3523
43.755
50.6535
45.7851
38.112
41.0697
70.5226
68.9205
69.3355
66.6537
59.0824
54.9865
58.5541
66.8799
84.8365
59.3617
71.4186
91.0148
86.9192
54.6578
63.4146
59.4312
53.0494
54.4353
92.1571
83.7266
97.1825
79.6286
68.9668
59.8441
65.9378
67.8004
62.5223
59.0244
59.6992
55.948
50.028
67.004
53.3788
59.2461
64.6425
61.3943
47.5402
46.4628
47.1927
46.7295
52.3216
54.36
51.1993
48.849
71.9674
76.0952
71.9989
74.1552
86.262
78.388
75.0503
76.9802
80.8601
92.3539
69.9504
78.398
76.6421
72.7744
73.2834
93.3088
79.6936
85.6158
