# vtk DataFile Version 4.2
vtk output
ASCII
DATASET POLYDATA
POINTS 642 double
-118.704 228.513 -23.0763
116.972 237.035 -28.5872
-105.5 -203.679 37.0712
126.734 -210.66 37.4007
1.08079 -177.871 287.714
4.12869 76.9703 257.82
2.66766 -55.0643 -82.7736
3.234 188.279 -171.066
139.472 71.2334 -121.354
141.257 -4.1226 202.814
-113.093 68.6299 -115.849
-114.548 0.76821 203.667
-135.005 151.419 37.7017
-76.5357 45.7408 252.573
-22.5161 122.424 103.412
37.1977 121.614 109.081
0.480406 273.519 -46.49
80.545 287.147 -91.4982
-65.1233 279.359 -88.605
-98.1981 112.524 -174.361
-167.816 191.696 -37.8236
-129.378 20.529 18.0957
89.1536 50.1116 259.281
104.246 111.067 40.105
-102.437 -100.43 274.403
8.80002 -10.6816 330.053
-126.075 -130.56 -2.21488
-110.446 -135.996 193.348
5.79346 68.761 -207.663
-77.8274 21.6275 -154.247
155.939 191.524 -51.8399
112.988 114.394 -177.588
137.395 -136.796 199.428
121.292 -101.336 276.844
91.3515 -223.079 238.295
-79.2231 -220.166 237.373
-0.123209 -215.445 32.8076
-76.001 -195.286 -39.7475
92.147 -196.41 -40.1556
90.298 20.357 -156.231
144.811 -140.627 -3.58064
143.506 -0.217202 59.4693
-138.732 189.579 -13.9137
-106.707 109.744 47.3099
-101.598 215.067 -15.0773
-102.016 22.9201 231.265
-89.9125 49.8293 201.244
-99.63 40.2433 174.919
-12.505 93.3477 219.768
-52.036 72.7728 223.725
-37.7488 65.1342 262.44
-21.681 236.98 -3.61863
-45.0283 271.413 -40.7936
27.0052 95.9018 218.833
6.31761 118.481 114.623
62.9222 276.083 -41.3401
36.5106 236.391 -2.77624
93.5693 219.317 -15.4077
-41.1018 296.439 -64.8737
-83.836 254.686 -58.0951
92.2918 280.451 -65.7118
56.0796 297.13 -65.2623
-36.1645 238.471 -140.552
1.97517 282.078 -90.6114
45.7319 241.013 -143.218
-140.346 222.997 -65.3551
-153.469 209.202 -35.535
-61.615 147.494 -182.419
-90.3338 199.46 -126.029
-146.966 188.161 -56.6004
-138.891 176.187 -84.5444
-114.275 85.0037 -141.093
-168.148 186.399 -16.027
-111.3 93.4474 -3.72726
-159.121 189.406 -35.2135
-140.707 161.304 39.0018
-116.058 -5.25303 136.943
76.5329 123.694 71.4504
132.719 209.95 -20.0029
52.1985 65.9653 265.027
63.3106 78.653 226.78
128.354 25.6067 181.028
102.811 52.4293 211.736
118.215 23.0208 235.87
-39.4577 28.4606 295.913
5.37108 44.0813 297.838
-110.207 -52.8539 241.346
-90.6931 1.65366 271.073
5.36089 -43.0396 324.074
-42.982 -33.8815 307.504
-70.5707 -142.676 295.167
-128.35 -50.2444 95.3502
-113.906 -72.4259 209.094
-103.922 -54.5212 -45.7443
-127.679 -74.2798 19.7735
-127.075 -153.071 115.929
-126.75 -134.357 27.6532
-121.425 -171.193 10.1521
-97.7125 63.895 -174.862
-103.511 44.5723 -131.795
4.70786 102.355 -213.471
-62.7809 89.421 -203.243
-60.7207 -24.2738 -143.295
-56.0759 38.7415 -189.788
2.58072 24.7128 -185.495
101.149 207.409 -134.845
70.1853 151.037 -182.786
150.184 218.494 -36.8676
145.058 231.777 -73.2726
140.52 82.272 -143.668
145.858 170.523 -96.3504
147.068 142.127 -76.4229
156.013 -152.191 115.341
130.62 -183.046 218.072
99.8916 -206.327 181.903
134.137 -52.8825 244.196
140.283 -128.201 240.726
140.673 -77.3116 208.465
62.4046 -208.69 289.484
114.077 -178.194 276.897
80.1202 -147.864 295.247
60.6806 -222.682 199.8
91.0112 -224.023 38.2506
-54.1871 -207.208 287.497
1.54024 -217.669 235.407
-75.7365 -223.535 39.2717
-54.9218 -221.237 196.868
-82.719 -206.146 176.855
65.6787 -223.824 -9.73308
117.194 -218.052 -9.85013
-98.982 -212.421 -7.42253
-58.3375 -223.618 -9.83935
65.566 -158.153 -55.7896
0.240337 -187.523 -35.9039
-57.6031 -156.848 -56.0458
130.638 -180.002 -27.2644
140.309 -185.648 7.94217
69.0919 -17.2031 -149.266
90.1412 -147.56 -57.4432
127.007 -40.8346 -44.393
130.181 -100.845 -37.2452
127.971 47.489 -133.066
146.346 -139.824 27.6681
119.022 62.9055 -43.0216
143.727 -88.3614 22.6884
144.626 -52.705 100.264
141.641 1.51438 151.904
50.5564 -26.3993 319.15
103.447 -0.202329 277.087
50.355 26.5606 301.45
-109.483 -176.531 217.093
-101.666 -173.936 272.04
-113.254 -131.005 238.847
-75.8781 -141.111 -59.3453
-110.383 -171.262 -24.4515
-118.446 -96.0206 -40.2121
115.648 64.4713 -177.429
64.0079 36.9694 -190.946
66.0364 88.9839 -207.138
143.86 76.2018 50.7018
156.047 172.47 -32.6705
150.339 190.604 -35.5834
-129.271 211.818 -17.0365
-122.035 206.639 -14.6324
-111.875 222.36 -18.1616
-128.924 136.37 57.2338
-132.434 181.577 -7.64796
-153.138 167.564 6.21355
-67.4458 193.955 3.46509
-109.459 193.841 -9.26485
-58.0116 119.104 76.5335
-109.822 11.124 216.821
-104.148 25.6424 208.81
-109.869 12.8062 196.999
-85.9123 47.5413 230.352
-95.8891 38.1237 220.57
-91.8681 34.4255 243.281
-115.226 99.543 110.793
-94.0031 50.9555 185.211
-108.491 83.3613 135.244
-4.32675 86.3896 238.977
-24.7825 78.7685 242.266
-12.8477 72.0048 261.294
-38.2535 87.5498 200.836
-32.2805 84.4021 222.872
-19.1606 96.9428 201.008
-57.3565 56.4784 259.435
-46.5945 69.4543 243.761
-64.6244 60.2522 240.391
-81.078 69.2066 152.214
-74.2004 61.2037 214.149
-62.0129 75.0406 183.089
-71.1883 236.468 -26.6344
-83.4516 246.489 -38.9678
-21.0339 204.511 21.6185
-48.5658 226.26 -11.0193
-35.0245 277.054 -41.33
-35.0995 257.879 -28.389
-22.2188 257.032 -23.1076
15.0065 87.0753 238.028
5.99435 95.4961 220.637
31.0592 117.29 117.18
17.2842 98.8674 202.865
35.206 98.9482 199.96
-2.71268 99.0213 203.102
-10.699 119.374 112.606
80.222 260.105 -39.7719
73.2215 250.487 -30.0718
110.468 232.378 -25.5761
31.8627 256.581 -23.4241
53.6383 260.042 -29.3186
49.4033 278.661 -42.0829
61.3956 194.083 18.0417
54.6848 234.476 -9.71748
32.5157 203.34 25.4158
-3.77213 201.725 31.9744
14.0165 199.832 33.6385
2.02639 234.56 5.63729
-61.1458 272.184 -53.0881
-109.848 243.235 -37.9629
-28.2437 290.979 -56.6979
-42.2424 290.155 -57.861
-72.5679 276.126 -71.9356
-53.0532 291.877 -66.9901
-52.2279 296.449 -71.3327
103.447 257.325 -56.1535
76.5712 285.159 -55.7029
69.9476 299.908 -71.9886
73.7454 295.416 -66.2327
88.241 289.734 -71.7131
61.0059 291.092 -57.3406
36.4484 289.583 -59.2191
-17.6785 216.949 -158.403
3.02754 241.479 -146.764
24.5756 218.239 -159.633
-42.5305 288.769 -95.174
-22.6665 262.123 -116.87
-49.9342 261.28 -110.411
63.9173 264.202 -110.941
29.9664 262.05 -117.753
54.2043 289.824 -95.1562
2.15959 288.308 -64.4173
35.0866 297.669 -72.9298
-27.3388 300.32 -73.4492
-132.606 232.88 -40.0905
-136.499 221.767 -30.7909
-103.634 250.311 -75.7999
-119.804 243.263 -56.856
-167.227 193.34 -34.3015
-150.506 217.822 -43.6006
-160.499 201.294 -48.6581
-33.4488 169.202 -175.951
-47.2104 201.1 -161.178
-93.2993 155.351 -151.696
-71.4143 177.287 -160.227
-83.54 128.156 -183.631
-60.8784 224.115 -139.984
-75.7937 238.009 -105.46
-116.925 107.451 -92.7343
-119.034 123.748 -98.6132
-114.78 76.6403 -128.42
-159.013 187.383 -59.5036
-152.113 182.196 -78.5414
-166.796 191.864 -40.738
-108.788 98.1119 -159.161
-115.549 134.021 -110.253
-108.783 138.392 -128.772
-124.346 218.44 -94.6562
-123.832 184.555 -105.546
-145.756 197.817 -75.8902
-146.493 201.916 -22.9552
-170.668 192.213 -36.4837
-168.893 189.693 -26.5076
-160.341 178.523 -9.93961
-157.055 172.3 1.9666
-111.609 74.5014 -92.7186
-131.719 154.423 -37.4766
-156.737 131.441 -23.546
-156.755 140.318 -26.5746
-140.595 58.7349 8.26206
-167.293 193.876 -34.0858
-173.19 193.122 -29.9548
-108.68 17.4601 169.933
-114.518 1.27069 187.953
-145.273 150.168 28.4558
-99.1625 84.8216 106.937
-122.109 -6.00729 79.3434
-112.09 35.3293 99.4818
-129.939 70.3168 4.33838
-176.388 189.313 -27.044
-171.344 173.668 -34.1603
-165.867 187.679 -15.1943
123.051 213.548 -16.8359
131.631 219.644 -20.4092
55.8543 123.949 94.8009
102.125 191.162 -1.3065
129.651 192.642 -16.0948
119.78 197.265 -12.5234
90.4553 121.706 49.8913
24.2606 72.4451 261.826
38.8834 81.4469 242.412
76.7759 63.6889 246.397
60.0644 71.9041 246.522
71.0256 59.6647 264.83
46.0616 89.6742 222.497
49.9141 95.0059 202.843
137.666 9.40283 192.795
126.927 23.6995 209.047
133.625 6.60017 217.927
102.912 62.3133 166.324
116.953 41.0911 195.971
112.423 53.8671 148.67
105.113 38.9212 250.275
110.359 39.2118 227.126
98.1765 50.9348 238.773
71.1905 83.8471 194.792
84.4243 66.3253 221.635
89.1239 73.2418 180.448
-14.2681 57.231 280.207
4.20863 64.3888 278.289
-61.5536 41.0654 273.726
-41.251 50.0986 279.793
7.09227 16.5085 316.364
-14.5898 34.1721 299.832
-12.1007 9.50918 317.562
-114.104 -20.8939 222.619
-108.255 -0.201728 235.686
-94.2175 -47.4267 270.253
-102.168 -22.8761 254.62
-108.318 -78.8007 257.767
-97.6436 15.3791 251.501
-85.8727 26.0348 262.158
-1.57448 -115.044 292.66
-41.1397 -99.9777 296.925
-49.2147 -159.345 295.348
-7.07776 -13.4086 327.271
-15.57 -36.3029 320.675
8.93922 -18.4418 334.914
-87.9857 -122.927 287.603
-64.0353 -87.1873 297.419
-79.2103 -72.4575 290.673
-67.7422 16.1512 285.266
-71.9935 -17.6694 291.522
-37.4099 1.07291 308.531
-114.87 -21.835 173.541
-114.411 -29.6534 205.502
-128.978 -25.6281 72.4222
-125.936 -27.1713 110.324
-113.499 -113.518 201.974
-114.653 -62.0921 158.86
-114.417 -93.6701 146.549
-101.056 33.1757 -101.078
-103.126 -0.139884 -45.0458
-128.102 -106.992 7.70602
-124.996 -78.1615 3.79032
-122.529 -106.818 -10.9635
-121.96 -25.8025 26.0167
-127.641 -24.8582 40.5835
-105.375 -186.829 63.0725
-119.66 -170.606 32.8614
-113.909 -189.859 19.6462
-108.661 -149.41 104.018
-116.624 -153.934 56.716
-103.415 -150.263 164.094
-126.808 -150.598 3.38417
-127.403 -150.858 19.5007
-127.811 -133.959 13.1385
-128.536 -59.9552 44.4758
-128.15 -107.747 20.0938
-126.502 -92.6584 57.1035
-111.174 65.9821 -141.345
-107.744 55.5352 -125.691
-99.406 85.4226 -177.087
-108.27 74.0621 -160.965
-98.185 39.3241 -144.459
-103.629 55.851 -155.828
-92.2018 46.2302 -167.384
3.01532 138.141 -195.918
-35.6046 125.103 -201.797
-30.9685 77.9843 -208.006
-32.3738 96.7244 -210.478
6.72349 86.2739 -215.842
-65.8255 113.085 -201.688
-84.5413 102.152 -194.839
-68.2249 -33.5103 -117.907
-31.6251 15.3503 -170.07
3.08147 12.6929 -166.64
-69.7968 30.9673 -173.324
-51.793 20.7173 -170.67
-53.5985 -9.52039 -151.484
2.88946 39.3406 -198.552
-31.441 29.4477 -190.511
-33.4372 46.5421 -201.844
-85.6117 74.4013 -194.275
-62.2995 60.7846 -201.765
[...]
POINT_DATA 642
SCALARS Mean_Curvature double 1
LOOKUP_TABLE default
0.0487718
0.0478909
0.0289285
0.0318106
-0.0214984
0.0174337
-0.00976207
0.0017542
0.0266875
0.030331
0.0159542
0.0292917
-0.346943
0.0192159
0.00382061
0.0053153
-0.0145923
0.0386255
0.0303225
0.0162823
0.196216
-0.090165
0.022101
-0.00775418
0.0207977
0.00947164
0.0168488
0.00626422
-0.00464866
0.00378484
0.0209871
0.0142937
0.00751025
0.0185758
0.0183945
0.021509
-0.00484804
0.0255244
0.0167061
0.00591412
0.00792106
0.000680547
-0.00848414
-0.0351838
0.00234533
0.0169091
0.0356076
-0.00308409
0.0187528
0.00325531
0.0193675
0.0122334
0.0156022
0.0237802
-0.00545718
0.028972
0.0128184
-0.00556385
0.0290626
-0.0636032
0.0604775
0.0433683
0.0146363
-0.00598147
0.0179682
0.0239459
0.0242594
0.00892311
-0.00131293
-0.0375359
-0.0508788
0.0164681
-0.413975
-0.0276635
-0.0184877
-0.0376389
-0.00208467
0.0067584
0.0258364
0.0155485
0.00691597
0.00265835
0.00506683
0.00702655
0.0151448
0.0228498
0.00488628
0.0222638
0.00770201
0.00230015
0.0175641
0.00720179
-0.000638177
-0.0271044
0.012132
0.0538054
0.00572552
0.0157922
0.0247973
-0.00499004
0.0130645
0.00937897
-0.132986
0.0171216
0.012668
0.00757942
0.00400344
0.0549909
0.0328412
0.0321091
0.0222418
0.00832907
0.0589866
0.0258251
0.028789
0.00862092
0.00839048
0.000654462
0.0395586
0.021298
0.0109244
0.00609669
0.011408
0.0352279
-0.0192931
0.0249366
0.00536739
0.032005
0.0280233
0.0400665
0.0377936
0.0220835
0.0166997
-0.020258
0.0222455
0.0279459
0.00915696
-0.00841415
0.0156177
0.00116046
-0.00240163
0.0202265
-0.00094995
-0.0146115
-0.00743826
-0.000394491
0.0153044
0.00956163
0.0106018
0.0108624
0.0190597
0.0301927
0.00299444
0.00827297
0.0179858
0.0832676
0.0236525
0.017892
0.0106629
0.00355345
0.0820166
-0.000682347
0.0482699
0.00504536
0.0258297
-0.0211132
-0.0150487
-0.0917177
-0.00650676
-0.00290603
-0.00358025
0.0162873
0.00837538
0.0014415
0.0187195
0.0201321
0.0229139
0.0314292
-0.0419551
-0.169899
0.0156244
0.00665923
0.0095795
0.00778898
0.012217
0.0186423
0.0188142
0.0113618
0.011366
-0.0367618
0.0102377
0.00507245
-0.00405232
-0.0155256
0.0016181
-0.00352176
0.0283432
-0.00174842
0.0100977
0.0078435
0.0187035
-0.00276271
0.000517258
0.0155232
0.00961757
0.00367512
0.0077929
-0.00286614
-0.00397577
0.00161473
0.00698933
0.0182054
-0.00265819
-0.00029912
0.0081777
0.0161
0.00757492
0.016529
0.0299092
0.0699562
0.0551471
0.0227522
0.0537025
0.0159679
0.0785706
-0.0486922
0.023337
0.068784
0.0375439
0.0888514
0.0186435
0.0229115
0.0082902
0.0173556
0.0094289
0.033052
0.00273316
0.00820314
0.00626013
-0.00056345
0.0250136
-0.071371
0.0548207
0.0681807
0.0310681
0.00984809
0.0168563
0.0483172
0.0259017
0.0508742
0.029912
-0.00180192
0.0172569
0.0094947
0.0104746
0.0214894
0.0173739
-0.00797942
0.00103783
0.0039734
0.0149836
0.0784087
0.074329
0.176395
0.0169889
-0.000930943
0.00258322
0.0215741
0.0127787
0.017949
0.0125035
-0.155955
-0.015354
-0.0588162
-0.140652
0.00114238
-0.0268173
0.174314
0.0124899
-0.0981837
-0.0385353
-0.344344
0.00182408
0.0171108
-0.129868
-0.0440162
-0.00365782
0.00209842
-0.0155381
0.168116
0.0303919
-0.131924
0.0224055
0.0603253
0.00764237
-0.00516856
0.0100974
0.0153957
-0.00716878
0.0069062
0.00951464
0.00993501
0.00797847
0.0267063
0.018994
0.0187188
0.0194537
0.0128246
0.0139305
0.00504738
0.0107144
-0.00142887
0.0255634
0.005855
0.0165909
0.00681491
0.00639154
0.0063419
0.00707949
0.0279009
0.0160873
0.0213728
0.0138673
0.0054744
0.0211407
0.0177905
0.0158901
0.00407255
0.0101665
0.0176751
0.0164729
0.0189284
-0.00563757
-0.00202111
0.00240034
0.0240419
0.0123346
0.0671613
0.0159758
0.0156914
0.0141941
0.014203
0.0130254
0.0118111
0.000602873
0.000528094
0.0161055
0.0122736
0.00339393
-0.00318675
-0.000529181
-0.0181713
-0.00378996
0.0209211
0.00631085
0.00132035
-0.0119734
0.0308253
0.00273811
0.0316783
0.00666145
-0.0151043
-0.0384994
-0.0653108
0.0312956
0.024263
0.0127485
0.00382182
0.00464001
0.00214609
0.0239063
0.0151886
0.0148746
0.0289471
0.00257619
0.0203655
0.0192209
0.00180466
0.0107991
0.00408331
0.0209896
0.0359732
0.0262856
0.0322572
-0.0317698
-0.00755291
-0.00154642
0.0197382
-0.000596063
-0.120596
0.0172442
0.0245523
0.020824
0.0351326
0.0273955
0.0270829
0.0100299
-0.00153328
-0.00304579
0.014896
0.0196057
0.0153256
0.00870141
0.0317065
0.107942
0.0218968
0.0289423
0.0494
-0.00835166
-0.000575514
0.0546892
0.0336614
0.00504585
-0.00100267
0.00414351
0.0172677
0.0286889
-0.00361202
0.026813
0.0229508
0.0300986
0.00198299
0.00335044
-0.020065
-0.00436693
0.0215794
0.0197474
-0.0467736
0.0282393
0.0109859
0.0340269
0.0243383
0.0112744
0.00233028
0.0292759
0.0207517
0.00100837
0.00222879
0.00095314
0.00652296
0.0359326
0.0187384
0.00316583
0.0284544
0.0361392
0.0287983
0.00826616
0.0171635
0.0190155
0.0203557
0.0316282
0.0190283
0.0712396
0.0295508
0.020824
0.0257431
0.00969021
-0.019167
-0.0103543
0.0490808
-0.0129727
0.0265633
0.0253516
0.0315518
0.0176149
0.0240042
0.0243007
0.0955773
-0.0277152
-0.0119426
-0.0105443
0.01212
0.0338812
0.0421048
0.0269259
0.0470117
0.0564204
-0.0151666
0.0227018
0.0326654
0.0164194
0.000675792
0.0384187
0.0323105
0.0209652
0.0346686
0.0371659
0.0309266
0.0391899
0.0349534
0.00647923
0.0182994
-0.0138558
-0.0207613
-0.0127355
0.0168526
0.0243598
0.011154
0.021325
0.0323378
0.0106611
-0.00587747
0.0350156
0.0209055
0.04698
0.0345354
0.027048
0.0331224
0.000692257
0.036544
0.0209331
-0.0285227
-0.0286573
-0.0418466
-0.209447
-0.0990035
0.00708694
0.0335989
-0.00806158
-0.12887
0.034996
0.031228
-0.0214675
0.00579831
0.0131072
0.0831406
-0.0266464
0.0235076
0.00338429
0.0167176
0.0510739
0.059082
-0.00928405
-0.0740643
-0.014108
0.00792633
-0.00487102
0.00251548
0.00309591
0.00545117
0.00835474
0.0143182
-9.36823e-05
0.0232602
0.00301494
-0.000243495
-0.000924429
-0.00216764
0.032073
0.0111753
-0.00139575
-8.31008e-05
-0.00288865
0.0117575
0.00200506
0.0239921
0.0330719
0.0106039
0.0227926
0.0142702
0.00942472
0.0168617
0.0037328
0.0180173
0.00502997
0.0201938
0.0227782
0.01163
0.00909672
0.0245902
-0.0193677
0.0135621
0.0138612
0.0215965
0.0196609
0.0255622
0.0164702
0.0237624
0.0245315
0.03202
0.0111197
0.00281878
-0.000755679
0.0139417
0.0216646
0.0241139
0.0253694
0.00955141
-0.0761492
0.0286678
-0.0145407
-0.129563
-0.0411429
0.0244631
0.0136928
0.0163801
0.0312682
0.0202815
-0.103754
-0.0403717
-0.172191
-0.0416454
-0.0308794
0.0244382
0.0218746
-0.00106991
0.0241309
0.0173668
0.0162709
0.0305824
0.0244084
-0.00535857
0.014989
0.0214535
0.00305863
0.0213729
0.00869086
0.0265974
0.0146254
0.0311201
0.0145014
0.0232525
0.0163788
0.0279582
0.00867153
-0.0372328
0.0122573
0.000666425
-0.0290221
0.0182223
0.0180628
0.00951386
-0.013315
-0.042293
0.0355152
-0.000642915
0.0086314
0.0133711
0.0587493
0.108651
-0.171403
0.0139014
SCALARS CoVolArea double 1
LOOKUP_TABLE default
333.91
451.354
658.382
678.334
1601.34
375.746
6025.72
1432.93
178.951
367.519
541.439
330.117
336.058
475.446
3194.11
1767.28
1168.81
857.373
926.532
923.906
66.6394
1393.5
461.081
2519.29
1027.02
371.077
438.911
1496.22
964.465
2625.55
226.44
1096.42
1441.17
1208.48
912.144
784.704
3737.51
474.736
545.34
2740.05
579.018
1928.01
354.41
3899.74
826.574
394.69
770.606
1161.59
406.401
660.094
531.87
851.983
583.326
432.303
2079.01
383.386
936.399
1164.75
234.399
648.354
343.159
287.185
1119.11
1501.72
1245.66
843.013
270.477
1179.18
1748.82
1252.58
726.9
706.629
86.4702
5048.06
290.277
4541.76
1560.67
2328.79
159.125
581.995
570.045
780.773
733.146
570.729
801.959
647.608
822.991
882.51
1894.37
1361.92
997.879
1999.79
1336.83
2141.63
703.665
2445.85
1206.73
417.602
430.383
409.456
1074.61
699.326
787.611
578.562
778.531
1638.24
1333.99
272.498
859.851
520.905
1010.11
479.041
2677.4
541.419
984.962
1026.03
513.147
1057.68
996.796
962.499
1294.38
2180.54
1239.38
986.962
1539.07
895.836
1744.61
872.524
905.666
468.199
418.93
766.097
1364.86
1224.24
1011.39
473.776
349.322
941.584
813.469
1589.78
1091.44
591.747
1664.26
4101.01
843.689
2518.22
950.446
1206.12
986.403
782.448
572.497
774.321
471.174
862.568
547.284
1086.59
507.945
692.153
733.037
1192.34
878.197
254.455
281.211
297.334
404.762
1876.79
1330.21
504.582
3169.26
2389.79
4692.84
397.217
483
412.792
464.225
397.638
379.817
1054.58
574.731
796.519
433.17
505.462
493.021
1984.29
487.827
1019.8
447.03
451.982
490.877
2128.5
846.538
2511.03
883.977
695.798
2216.49
1325.8
475.768
649.278
981.658
492.713
376.615
1732.4
1098.75
775.179
987.422
1652.7
630.126
710.171
497.219
1196.65
543.625
671.906
2509.99
1128.58
1662.41
1471.82
1750.43
1200.64
603.033
557.667
554.167
277.943
598.472
304.648
366.829
691.47
451.747
416.351
190.772
405.868
297.989
650.366
1255.83
1355.55
1312.32
926.77
1405.31
1054.83
1096.52
1544.47
1082.77
512.29
880.839
808.188
425.807
355.898
1217.42
710.726
132.775
409.243
408.21
1595.86
1177.81
1548.57
1340.05
921.222
1331.59
1630.4
1362.64
1051.22
524.485
260.123
642.621
120.626
825.594
964.595
1313.64
1470.06
1434.72
756.136
406.899
42.3967
217.619
297.206
123.959
3345.75
2668.17
636.154
1258.14
1564.1
574.615
32.3549
1656.81
668.623
1064.37
2714.16
2244.31
4695.76
4594.66
151.704
1891.47
469.364
389.016
208.943
2730.62
1823.64
900.425
910.648
2175.09
600.327
567.374
472.477
439.549
422.323
436.579
1289.94
369.438
549.307
543.14
1735.46
770.83
2030.59
448.316
497.604
476.865
1821.28
743.962
1817.72
614.1
514.348
638.35
625.522
635.886
710.263
667.327
677.498
671.491
1213.15
886.7
820.092
540.92
566.54
3170.28
1996.8
1555.05
637.835
1167.85
357.575
942.506
1393.9
1384.54
939.211
1403.56
1079.29
1546.06
785.556
1204.22
1421.65
1316.05
2118.69
3186.02
1664.75
4749.73
445.966
1844.37
951.623
3087.81
1055.88
1747.35
1008.3
558.356
2641.74
983.74
1065.23
346.321
460.702
323.57
1262.36
748.712
2853.03
338.271
479.548
530.289
409.258
895.843
369.575
510.759
1851.46
1366.51
862.395
803.271
613.987
814.809
612.734
3763.56
1140.01
3672.85
634.196
610.434
877.129
861.366
657.175
875.261
602.88
742.589
551.955
1297.75
1682.64
1465.38
1273.56
1037.45
1285.98
1584.92
395.501
467.863
412.133
495.615
214.046
585.431
1162.6
220.919
647.537
229.85
1605.63
1060.48
866.325
351.377
789.274
440.014
1520.73
830.601
1627.41
1885.48
2378.22
1049.37
576.061
1389.13
1514.19
677.74
732.06
776.347
759.839
817.339
703.735
760.787
685.126
952.067
995.515
596.918
488.082
989.074
735.941
1822.22
1011.16
806.418
933.318
1257.95
809.195
949.215
618.382
883.885
978.51
1145.96
836.862
735.957
1050.52
2604.71
2484.02
5931.2
980.007
1411.35
1015.91
1499.52
847.08
1541.21
1133.45
846.705
929.955
1029.72
5235.18
1573.27
2014.92
665.863
737.906
634.93
907.177
869.489
3581.02
564.331
494.561
1343.37
787.062
463.845
521.636
677.86
448.427
491.006
540.042
426.456
427.023
612.917
1264.44
4190.52
2177.67
3882.12
891.347
1159.42
612.016
467.382
1049.94
745.087
1323.66
1213.06
1305.5
414.423
505.179
508.84
458.071
415.673
356.483
477.836
4021.2
1443.47
3967.32
531.573
978.021
459.742
467.039
763.798
869.387
399.869
730.944
959.835
1223.95
1145.47
718.959
4373.09
588.158
2723.07
661.181
732.995
455.08
626.605
1534.36
3245.99
1557.57
2848.12
1320.88
3026.88
3927
1644.43
487.911
1359.24
426.475
3225.94
2090.89
1422.97
1736.12
1066.42
665.127
1200.86
3172.48
2450.3
1670.7
1771.59
1154.84
423.961
840.611
692.053
702.515
1003.58
1320.27
700.987
605.631
731.911
643.086
661.956
1374.98
984.359
868.48
1986.94
739.983
784.027
1285.98
585.344
732.679
798.86
745.329
797.013
835.347
733.795
535.448
670.093
619.842
692.127
733.595
640.996
489.368
1039.78
509.314
364.505
389.512
3783.82
409.318
509.171
428.407
447.706
532.105
912.807
4205.36
678.892
748.935
568.541
665.397
647.264
2610.44
357.034
596.34
472.396
406.386
612.443
1185.68
887.931
718.366
642.138
697.369
1422.45
798.345
949.307
714.397
715.583
700.392
834.977
749.47
593.56
1512.01
1422.16
1753.6
2685.54
1561.93
146.347
610.143
3777.67
3305.94
154.987
1297.79
221.822
138.998
144.532
303.557
106.469
836.87
SCALARS SignedDistance double 1
LOOKUP_TABLE default
24.1476
24.5605
18.1374
15.5603
23.828
22.2221
24.7876
15.6354
25.0864
22.7711
25.2038
24.3863
91.2126
20.3414
27.0755
28.7183
26.8921
10.4757
17.6382
19.6883
47.0502
39.2139
20.3497
40.9141
16.8729
17.7427
21.689
25.4405
18.4702
24.498
23.3392
16.635
23.9921
16.1164
15.3398
13.8402
29.2596
19.0269
19.7697
25.383
21.3505
24.9754
41.8391
58.8574
31.7232
23.4153
25.43
27.7227
23.525
24.3647
21.8212
24.4755
23.6784
24.6778
28.0626
22.1675
24.4965
27.7561
19.2205
26.0833
20.9489
19.1805
15.0483
21.3779
13.5548
15.7976
28.8101
16.7161
20.7751
26.2037
29.9319
24.0937
61.9712
53.2212
41.11
94.4016
25.8946
30.8694
26.6807
21.5435
23.5681
24.6064
23.4467
22.9364
18.0017
18.3473
21.2924
17.7222
19.0001
19.489
16.2298
24.0498
23.7406
31.2246
24.4978
59.034
23.4775
19.6522
19.7146
26.4662
14.7265
17.9357
59.9961
19.1778
20.4955
16.1468
16.634
23.2989
15.3436
21.9716
29.2815
40.5537
60.7331
21.4167
29.7988
19.0322
21.7875
22.1914
11.1142
13.6492
16.3148
21.0967
16.9802
10.4536
25.8981
16.4698
21.8926
34.0465
16.764
13.4814
14.0583
16.5594
26.4512
35.2767
26.7138
18.135
21.7924
52.8391
28.0701
29.6879
24.3959
25.936
22.8489
34.7181
25.322
24.59
23.1775
18.059
18.1207
19.4195
21.0397
14.7024
23.0683
29.9196
19.0096
37.3486
17.4444
19.19
17.4169
49.4144
36.2231
24.2666
30.1446
32.7086
28.6741
92.6597
45.8643
74.0757
29.6493
36.6633
32.3732
24.1213
25.0836
25.082
23.1434
23.7712
20.392
64.612
29.4174
55.2447
23.2711
23.1531
21.4568
25.9091
23.32
25.7361
20.9149
23.7415
24.439
30.3128
24.5448
27.8477
25.4852
24.2057
27.1247
27.4937
22.6812
25.399
25.7561
23.5598
24.2683
27.8949
27.7759
27.8332
27.9202
28.1442
25.9283
25.3811
24.2602
24.4861
25.816
22.9399
27.0529
25.2485
26.7139
27.6068
27.9808
23.0937
23.9451
22.065
19.3492
18.9862
24.9397
17.1293
17.3626
27.7366
18.5648
18.1587
17.7991
17.6113
18.9521
24.9284
16.1419
13.1905
16.807
12.8481
19.4726
16.7679
18.3573
18.9959
13.7229
28.4779
25.3216
17.7098
18.4022
21.211
23.8227
16.8686
47.2868
20.9143
33.254
17.423
17.542
19.4744
15.9185
16.554
15.3742
19.3028
28.0763
33.4818
24.6267
37.9949
36.1234
44.8598
18.9204
33.8146
29.2859
14.1461
27.2817
25.7979
35.75
50.2315
54.0049
62.2596
71.8708
29.2734
40.3913
76.7377
70.636
65.0373
47.4407
54.4038
26.2692
24.3579
91.7026
42.2086
27.3402
25.299
62.8064
60.398
59.4445
59.7389
29.827
26.3514
26.5443
29.3888
28.6094
30.4914
38.0589
21.172
22.1731
22.6092
23.1492
20.1896
22.172
24.0538
22.8109
22.1002
20.7431
25.8675
23.6686
25.2328
20.1964
23.2151
21.785
25.8405
23.9488
26.9599
20.0235
20.395
19.3108
18.3127
17.7474
19.1642
16.8592
23.9216
21.7185
19.2014
21.029
20.4283
20.988
19.3064
18.3531
18.0071
16.4305
18.3056
18.3623
17.6108
15.0901
18.5134
17.0513
17.7603
17.2833
18.6725
24.7319
24.2619
24.6993
26.1143
23.3198
24.4901
24.2561
36.1046
36.6966
23.7936
24.8768
22.5711
27.97
28.2771
23.8304
21.0846
21.1771
41.2063
26.3977
36.0612
22.4421
23.0628
23.5023
24.2514
23.8526
23.0583
24.6299
26.3606
19.2181
19.3627
24.8694
22.4609
19.1513
15.811
16.1818
18.2062
17.7277
16.8911
16.3578
15.1174
67.0371
26.299
24.0995
22.14
24.7901
45.5137
17.4395
19.4957
16.5249
15.5019
16.4577
17.0449
16.7342
18.5791
18.4362
14.2635
14.5019
15.3551
16.0458
20.0356
18.348
22.55
17.4925
22.9653
28.2752
24.5692
24.3451
25.667
24.5268
22.2014
27.6874
16.9898
25.1148
31.9529
23.02
14.7432
19.771
24.8997
21.6547
44.5278
47.0282
21.35
23.2597
35.1366
17.2481
20.946
17.9792
22.0207
21.9331
22.7405
19.5359
21.4422
19.2238
21.8827
21.7211
21.6293
19.5513
16.5134
16.4889
10.7783
10.8887
14.0643
15.6457
14.3716
13.7712
21.326
19.1986
15.6264
52.1587
15.6179
19.0089
24.6848
17.4839
52.2146
27.574
15.7957
23.4754
12.798
13.6086
12.0125
18.983
14.7283
15.9741
53.5778
48.1976
41.9632
57.067
17.3979
15.98
29.3259
19.099
26.672
20.4591
29.7515
16.9588
13.5889
23.7267
17.0052
14.3077
16.1176
15.6061
15.9042
15.1618
15.4933
15.329
14.5382
17.2242
17.1432
30.1812
35.7095
30.0229
20.545
29.8359
20.2639
20.7321
23.8684
20.0871
29.2818
16.6297
25.5028
18.2599
20.6394
17.1905
14.545
22.003
20.8641
19.6027
59.1356
52.3581
65.6236
59.9808
41.4109
29.0445
22.341
32.2196
44.8886
25.7843
20.5123
33.8346
23.2284
23.588
52.0564
43.226
20.0191
21.5882
19.8646
21.7548
19.8762
22.0121
29.6602
42.1744
25.6135
45.9414
25.3827
24.2895
26.2585
24.3988
26.7599
22.923
23.1573
22.2271
22.5386
25.1415
23.8101
27.3237
27.3928
25.5536
24.0716
17.7502
15.2313
17.8927
15.5766
17.2413
20.3859
17.3358
20.9984
18.8856
16.4311
19.9987
16.7163
19.4673
19.0023
17.2247
17.8814
18.7208
16.3106
46.115
18.4437
23.7254
25.5096
23.3401
16.236
16.2665
14.6355
12.1384
15.3167
23.9828
23.0511
23.1857
23.3763
22.3061
19.3235
22.5538
23.0452
54.5274
22.1286
30.3908
62.9558
71.1506
21.1122
21.786
19.1012
16.5049
16.9036
59.5152
54.5892
59.8439
46.6942
23.5429
19.2186
21.0928
22.3121
21.0125
18.3726
19.1126
18.9646
16.1629
24.3075
17.7682
19.4925
24.0786
20.964
16.0588
14.6343
16.5305
16.0976
17.9897
17
17.9133
15.1081
23.1046
35.6543
23.8529
23.9201
40.2483
37.2487
26.1634
25.7125
31.1844
65.2985
24.5595
28.9095
25.0102
23.5112
24.0462
55.248
36.9231
48.1228
