# vtk DataFile Version 4.2
vtk output
ASCII
DATASET POLYDATA
POINTS 642 double
-147.094 278.023 12.1931
145.153 286.9 9.14572
-147.565 -240.79 44.9134
160.611 -248.743 45.4582
1.34564 -178.728 341.15
2.45095 134.965 299.054
2.79723 -97.4032 -149.918
1.93923 210.206 -218.939
213.563 53.881 -120.641
208.934 9.07408 217.837
-190.791 52.8693 -119.944
-190.455 12.7598 214.402
-177.933 159.773 70.2838
-118.148 85.2527 288.872
-51.5894 191.971 145.495
58.61 194.852 151.061
1.47929 330.463 -2.50897
98.9206 316.282 -115.478
-88.6976 310.305 -112.431
-139.237 127.369 -208.783
-230.97 193.21 -46.2646
-202.245 26.1678 45.6784
127.107 89.003 294.746
169.709 151.439 86.1234
-141.636 -99.2503 312.618
5.04149 8.48987 381.229
-194.424 -136.778 -24.4587
-186.048 -145.421 188.404
3.61084 52.3978 -262.529
-119.441 -18.0854 -190.053
225.265 199.076 -53.9179
147.81 130.031 -212.51
206.649 -148.899 192.785
154.6 -100.454 317.355
108.017 -262.481 248.105
-102.056 -259.39 246.814
0.564525 -275.486 44.5444
-92.6417 -229.391 -81.9452
102.38 -232.249 -84.1896
128.171 -20.5695 -193.208
207.123 -147.146 -26.9612
220.876 11.5965 56.3931
-178.717 226.613 41.7244
-138.14 170.897 100.864
-117.139 262.394 50.8493
-163.105 49.6384 257.758
-148.319 101.704 221.165
-176.933 67.8957 186.948
-29.7562 161.32 249.764
-89.9221 136.841 249.127
-59.6189 115.117 303.181
-40.6638 289.893 51.5858
-68.4216 323.012 1.9116
37.5819 163.469 249.673
4.80778 196.693 158.043
79.6252 327.205 1.69153
49.6786 290.664 51.4106
114.939 267.64 48.436
-52.1514 351.252 -50.9878
-119.178 309.99 -47.1527
127.126 323.187 -51.088
59.3432 353.034 -51.2626
-47.9315 268.796 -176.194
1.87283 322.303 -121.057
53.7528 270.419 -177.738
-175.677 254.617 -83.5487
-197.649 246.826 -17.6967
-78.0475 170.999 -225.719
-121.65 225.959 -164.331
-213.147 156.965 -74.0679
-196.095 177.668 -120.325
-178.408 86.1376 -165.124
-219.241 194.219 9.47043
-190.368 71.1398 -32.3145
-224.122 164.596 -24.9734
-183.063 150.857 48.6611
-195.019 9.24668 145.232
125.249 177.806 114.567
180.037 233.565 37.5117
68.4354 116.44 306.413
97.5142 140.125 253.519
195.655 63.9653 190.255
157.452 102.53 229.905
175.505 51.0012 263.353
-62.1445 53.9264 344.696
3.60263 79.7472 347.518
-172.949 -47.2817 267.538
-133.856 12.3531 311.65
2.1022 -60.5783 373.002
-67.5622 -34.2169 358.062
-84.2169 -146.146 343.501
-203.5 -56.4066 103.624
-190.023 -74.9255 211.203
-180.528 -55.9386 -66.9218
-205.218 -71.8193 10.2069
-168.375 -178.66 119.739
-200.124 -144.14 37.486
-180.999 -196.178 4.49209
-141.968 48.8181 -213.225
-169.82 15.9829 -156.119
2.87083 117.144 -261.281
-78.9138 90.7535 -253.752
-72.4209 -64.8877 -183.098
-74.57 7.93549 -238.338
1.88167 -16.5888 -234.346
128.627 231.275 -169.522
83.2322 173.458 -227.667
199.799 251.364 -20.3573
180.504 262.727 -87.8123
195.638 84.3249 -170.531
199.494 178.661 -127.558
218.501 133.606 -82.1381
186.019 -188.295 119.989
183.261 -213.615 216.441
135.991 -254.623 175.14
188.638 -47.7706 273.116
203.4 -132.361 256.286
211.672 -79.0935 211.999
64.5619 -232.522 317.378
141.603 -194.065 306.25
90.611 -150.472 344.609
60.8853 -281.371 184.577
96.9087 -276.576 44.3451
-59.5536 -230.78 314.965
1.41592 -268.174 252.015
-87.6081 -274.511 44.8688
-56.624 -279.893 183.503
-125.64 -251.468 171.558
65.5903 -273.443 -25.3687
139.127 -256.077 -25.6418
-128.012 -249.778 -23.4181
-60.331 -273.366 -25.0008
61.3702 -185.304 -121.339
0.880895 -231.272 -84.7492
-54.9368 -184.564 -121.842
171.971 -199.841 -62.0416
200.568 -204.541 2.13575
78.0199 -67.1912 -184.785
118.207 -165.61 -119.332
197.71 -49.4841 -67.9472
174.694 -113.39 -88.2377
183.936 15.7424 -160.433
213.467 -151.54 37.9279
204.72 56.4395 -48.1963
220.812 -79.9531 12.0952
218.102 -59.4325 107.14
216.186 12.5343 154.896
72.4898 -29.8938 366.088
143.329 12.0593 318.702
69.3239 53.7017 350.442
-166.148 -203.916 217.625
-133.968 -189.167 300.432
-183.671 -133.824 250.929
-108.66 -160.635 -116.659
-157.107 -193.485 -57.3245
-166.137 -105.555 -85.6296
152.946 48.852 -217.193
78.9594 7.22622 -240.41
81.4195 90.729 -257.372
206.898 95.7084 60.5573
226.625 154.037 -24.1251
215.458 200.812 5.04901
-165.824 253.401 28.0653
-150.163 247.035 47.8069
-131.735 271.44 34.9754
-160.505 164.02 86.0301
-164.901 219.645 58.0086
-188.109 200.375 52.8121
-90.8594 247.101 68.8386
-135.247 238.595 62.0853
-96.9141 181.837 122.164
-178.88 31.6679 236.776
-174.301 57.7308 223.38
-185.607 39.0455 204.246
-136.592 93.9377 256.895
-156.798 77.5167 242.07
-142.871 67.6551 275.206
-163.199 122.091 129.579
-164.524 86.4955 204.242
-151.579 120.796 161.476
-14.0249 150.124 274.92
-45.0537 140.69 278.138
-26.4139 126.167 303.143
-73.4192 155.719 224.645
-60.691 150.336 251.277
-43.0989 168.388 224.736
-89.8851 101.434 298.341
-77.0718 128.121 276.722
-104.464 114.196 270.948
-135.015 131.606 181.838
-122.234 120.791 236.453
-109.913 142.187 206.989
-91.6784 291.003 28.1941
-105.583 301.497 5.79624
-48.5942 258.322 78.9017
-73.0199 277.961 49.3073
-42.1689 331.648 0.656405
-54.9533 309.532 25.8379
-27.2868 314.207 26.2498
19.9462 150.853 275.266
3.06811 164.94 252.212
34.8966 196.589 157.891
20.4017 176.103 227.235
51.9498 172.512 223.904
-12.1469 174.757 227.824
-23.1889 196.193 155.114
108.895 311.723 3.9301
95.8007 300.013 26.4581
130.491 279.651 31.4254
32.6769 312.985 24.8034
66.3204 312.236 25.5028
50.237 333.215 -0.512445
89.2976 247.67 75.6404
78.216 284.216 48.6296
55.3926 258.507 82.0367
-16.0661 259.817 90.3569
21.5232 258.999 91.8108
0.842672 290.009 56.2586
-92.4618 323.15 -24.7012
-136.588 295.686 -18.0746
-28.2976 345.851 -27.2294
-60.1081 340.647 -27.3732
-105.313 316.94 -78.0771
-82.3951 338.513 -51.979
-72.2918 338.794 -79.5754
134.972 307.285 -24.1295
102.778 331.407 -26.4362
81.5723 342.925 -81.2325
95.0143 344.031 -52.3837
116.559 325.897 -80.0096
70.4189 343.801 -27.2048
33.8336 346.485 -27.6751
-23.5521 242.111 -201.344
1.80216 271.782 -181.56
27.7785 242.933 -202.229
-50.8109 322.807 -121.477
-26.7304 299.223 -151.11
-69.4146 293.312 -144.799
78.239 296.969 -146.723
31.1559 299.106 -150.964
57.4946 324.62 -121.849
2.34023 351.325 -51.1533
33.4268 346.762 -84.9901
-28.3996 345.926 -84.6376
-167.528 278.4 -29.9615
-175.043 264.608 -4.13273
-132.391 283.742 -97.7622
-151.012 284.914 -63.7759
-217.4 221.352 -31.2079
-190.879 253.591 -46.64
-206.239 223.921 -64.955
-40.2352 192.326 -223.751
-62.0592 224.888 -202.872
-130.306 176.578 -187.787
-98.1541 200.683 -198.25
-111.119 148.722 -221.247
-84.1495 251.005 -173.871
-104.858 269.472 -139.655
-196.26 96.5162 -99.9297
-195.118 116.375 -117.604
-189.38 67.7289 -140.999
-216.478 187.242 -85.1995
-208.364 166.696 -95.743
-224.732 178.016 -57.9016
-161.336 106.695 -189.554
-183.397 135.08 -140.785
-163.88 150.841 -164.443
-153.619 244.696 -124.388
-165.005 201.118 -144.78
-191.53 215.47 -105.802
-189.943 239.491 11.9809
-230.248 195.169 -17.589
-213.185 217.486 -3.92959
-202.408 209.879 28.9902
-202.705 190.92 38.4076
-193.736 61.7174 -93.4355
-205.617 124.471 -57.5802
-218.51 118.771 -16.2369
-218.16 135.936 -21.1907
-206.605 61.8995 24.0745
-226.607 167.865 -35.0311
-231.24 178.113 -31.0374
-187.384 40.7781 175.628
-192.89 13.0609 190.905
-182.985 169.359 61.8582
-177.433 92.663 122.079
-203.21 8.57442 88.6959
-190.524 52.1024 113.817
-198.802 79.8308 35.391
-226.045 181.474 -13.5361
-218.078 165.843 -7.38835
-212.503 187.402 17.7303
151.481 252.485 45.6425
167.713 258.165 27.0852
91.1125 187.929 135.121
131.293 241.436 64.3198
185.233 212.999 43.0972
163.059 229.42 53.7354
151.936 166.091 96.7252
33.349 126.32 304.154
53.4176 141.976 279.613
113.177 117.419 276.349
85.981 130.515 280.437
98.5375 104.222 303.249
69.2256 153.464 252.705
79.3632 161.069 226.785
204.805 37.4383 204.626
188.274 57.7003 227.376
194.521 29.0638 241.452
165.369 111.601 183.859
177.607 84.8358 210.532
180.589 95.7564 163.449
153.049 71.4043 281.241
167.518 79.7291 248.605
145.975 97.1983 263.551
112.791 146.541 217.212
129.736 123.421 244.106
142.081 129.789 200.994
-27.4718 100.211 327.619
2.72166 110.742 324.386
-93.5963 72.898 318.035
-62.8111 86.9426 325.638
4.49748 43.5747 367.388
-28.1211 66.2821 350.276
-26.8676 31.0236 367.397
-182.43 -16.3594 242.473
-170.3 11.1922 264.386
-137.764 -42.3612 312.077
-156.049 -16.7028 289.831
-161.951 -73.5511 291.554
-150.853 33.7859 286.118
-128.745 51.428 302.349
-1.24276 -125.569 347.084
-44.9792 -110.108 351.289
-50.293 -163.993 347.349
-25.9788 -7.49389 378.212
-31.6448 -46.0758 370.363
4.89879 -18.4298 386.588
-115.268 -124.475 330.802
-80.6044 -91.7241 348.152
-109.479 -71.0708 336.961
-100.355 34.4152 331.798
-104.999 -12.1638 337.918
-63.1637 13.0231 358.778
-193.605 -21.4288 179.54
-191.634 -29.7533 211.504
-208.148 -19.6132 76.1637
-203.672 -20.6197 121.179
-188.14 -117.708 202.171
-191.829 -66.4344 166.599
-190.199 -102.267 151.618
-183.066 16.0238 -109.425
-185.513 -2.64455 -57.2744
-201.662 -108.039 -6.41389
-199.581 -74.8512 -17.1594
-191.464 -107.603 -37.2485
-201.29 -24.1053 4.59662
-207.319 -23.6982 33.2824
-159.858 -219.113 74.945
-180.468 -196.396 42.0462
-167.664 -220.828 22.3678
-179.165 -151.019 111.475
-187.152 -168.972 68.3741
-178.946 -166.973 164.502
-190.591 -166.702 -11.0913
-193.814 -168.825 23.043
-201.38 -141.585 7.91188
-206.261 -63.1971 45.2346
-204.51 -110.969 20.9749
-199.749 -101.67 65.6855
-177.056 49.4729 -164.523
-182.983 32.9099 -138.361
-143.424 86.809 -214.719
-161.843 67.8202 -192.919
-149.228 2.96948 -175.412
-157.174 32.053 -187.338
-134.608 15.328 -203.718
2.02576 160.518 -242.317
-41.8577 145.248 -247.578
-39.0082 70.9236 -262.749
-40.4513 103.714 -260.796
4.00043 83.4281 -268.87
-81.4581 127.729 -245.855
-112.459 110.881 -236.523
-49.9251 -78.6087 -172.702
-37.7345 -34.0947 -218.66
2.43438 -40.6988 -213.615
-100.329 -6.87007 -216.2
-71.4051 -21.778 -219.274
-91.6265 -42.6919 -191.364
2.18526 14.2247 -251.074
-39.2385 -5.42941 -239.47
-40.0339 26.968 -253.431
-114.856 68.8568 -237.884
-78.6938 47.8522 -251.621
-110.646 28.3998 -230.831
[...]
POINT_DATA 642
SCALARS Mean_Curvature double 1
LOOKUP_TABLE default
0.0134209
0.0109508
0.0110898
0.0117602
-0.000869807
0.0143062
-0.0148701
0.00398501
0.0203447
0.0119819
0.00993725
0.0169144
-0.0269041
0.00963124
-0.00164597
0.00160673
-0.00157723
0.0130397
0.0102104
0.00998944
0.0328134
0.0192007
0.0105879
-0.000796772
0.00675349
0.0135387
0.0114985
0.00520524
0.00416486
0.00563933
0.0122182
0.00883643
0.00700775
0.00867748
0.00972959
0.014003
-0.00110297
0.0124488
0.0133206
0.00591612
0.00644638
0.000832111
0.0105482
-0.00336386
0.0103923
0.00988706
0.00820669
0.00454098
0.008166
0.00746513
0.00979144
0.00739149
0.0113716
0.00770483
-0.00277706
0.0140057
0.0059755
0.00146595
0.0260772
0.0076631
0.0188501
0.0222627
0.00815018
0.00130906
0.00799545
0.00989785
0.0171245
0.00661074
0.00355649
0.00339024
0.0143414
0.00770489
0.0414902
-0.00966253
0.0178251
-0.0129012
-0.000709922
-0.00243633
0.0152568
0.0102301
0.0075402
0.00845395
0.00645853
0.00959875
0.00778862
0.0103763
0.00363658
0.00940376
0.00703593
0.00442803
0.0101621
0.00365115
0.0020852
-4.87798e-05
0.00774462
-0.0141304
0.00913423
0.0111696
0.0136638
0.0120533
0.0067369
0.010607
0.0103382
0.0116438
0.00741417
0.0050753
0.00556987
0.0150144
0.0110046
0.0121826
0.00679676
-0.00124577
-0.00919263
0.0173606
0.00625995
0.00313339
0.0166366
0.00473695
0.0130502
0.0116899
0.00871525
0.00823156
0.00782084
0.0130538
-0.00550518
0.00909721
0.00768743
0.0105212
0.00911669
0.0134464
0.0132726
0.011942
0.005224
-0.00181453
0.00762928
0.0122118
0.0190896
0.010022
0.00970727
0.000503278
0.00902771
0.00934918
0.00222059
-0.0103776
0.000202937
-0.00084592
0.00734058
0.00655119
0.00765305
0.00822199
0.00964469
0.0108529
0.0150445
0.00762913
0.0100818
0.0127032
0.0127414
0.0104861
0.0097156
0.000388395
0.00900353
0.0106162
0.0123005
0.0125191
0.0123768
0.000382347
0.00792941
0.0216429
-0.00279438
0.00630384
-0.00479395
0.0095217
0.010077
0.0102418
0.00959487
0.00999904
0.00980218
0.000312191
0.00966343
0.00416699
0.00846436
0.00888237
0.00743962
0.00360589
0.00802634
0.00651292
0.00971894
0.00979197
0.00936513
0.00651626
0.00843868
0.00597555
0.00328981
0.00643058
0.00138833
0.000701497
0.0143745
0.00907827
0.00754676
0.00815007
0.00963424
0.00180544
0.00821901
0.00924152
0.00852921
0.00195844
0.00950147
0.00650294
0.0114247
0.00127164
0.0120135
0.0115801
-0.00252376
0.00320687
0.00343886
0.00810789
0.00634289
0.00343589
0.00757268
0.00897229
0.0125627
0.0123489
0.0110561
0.0216385
0.0163419
0.00373856
0.0115521
0.0151423
0.0245701
0.0148423
0.0128439
0.0105719
0.00810529
0.0078677
0.00813709
0.0136324
0.00636098
0.00928578
0.0100028
0.0034107
0.0109601
0.0116245
0.0112498
0.0122147
0.01771
0.0109289
0.00542683
0.00840958
0.0165289
0.0117348
0.00691191
0.00305976
0.00918163
0.00338422
0.00528143
0.00885797
0.00800326
0.00200813
0.000480266
0.00733134
0.0148458
0.0239588
0.00694873
0.0142084
0.0093764
0.00269854
0.00264202
0.00832564
0.00720811
0.0103886
0.00876819
0.0392629
0.00938275
0.0161807
0.0471857
0.00493188
-0.00313302
-0.0881321
-0.00479675
-0.0329278
0.0102158
0.0458642
0.00320761
0.00902779
0.0266997
0.00186211
0.00414492
0.00121902
-0.00206979
0.0150705
0.00123028
0.00305894
0.0126036
0.0130312
-0.00155717
0.00549577
0.0092988
0.00755062
-0.00108818
0.00570248
0.00773589
0.0104885
0.0105174
0.0107389
0.00845048
0.00528177
0.0110976
0.00731533
0.00815136
0.00568481
0.00580133
0.00122344
0.0108127
0.0100665
0.0107923
0.00511475
0.00840942
0.00455502
0.00788156
0.0121849
0.00938144
0.00905896
0.0100053
0.00799474
0.00933552
0.00480697
0.00991244
0.00306573
0.00570748
0.0109249
0.0101676
0.0100449
-0.00456593
0.000717854
0.00999659
0.0146079
0.00586273
0.0232826
0.00700983
0.00583032
0.00786244
0.00844535
0.00708996
0.00904266
0.0005038
0.00747618
0.00784347
0.00741204
0.000811541
-0.00220368
0.000770509
0.00426307
-0.0031705
0.00840752
0.00546263
0.00406251
7.77181e-05
0.0101604
0.00697229
0.00781661
0.0123349
-0.0124924
0.0221588
0.0183749
0.0106668
0.00973999
0.0149019
0.00355303
0.00769451
0.000741428
0.0126947
0.0127125
0.0111292
0.011266
0.00681611
0.0105797
0.0106475
0.00196899
0.00731161
0.00931088
0.00915355
0.0156051
0.011542
0.0137404
-0.00227652
0.00812838
0.00208087
0.010346
0.0079658
0.0125678
0.00700811
0.0104639
0.00827239
0.012422
0.0122087
0.0126895
0.00791733
0.00295988
0.00421349
0.00748891
0.00818495
0.00737515
0.00454692
0.0114076
0.0104833
0.0154194
0.00838969
0.0146209
0.00985409
0.00612206
0.0162703
0.00794394
0.0175557
0.00245054
0.00360274
0.00830096
0.0149837
0.00903727
0.012931
0.00712637
0.0127154
0.00624071
0.00699018
0.00205542
0.0050218
0.0168178
0.0071281
0.00976305
0.014643
0.0137694
0.0123453
0.0084959
0.00647498
0.00974598
0.00922133
0.011289
0.00646218
0.00199917
0.0104314
0.0125787
0.0154586
0.0184179
0.00747975
0.0116996
0.0129765
0.0136478
0.00588215
0.0127574
0.010075
0.0133072
0.0111699
0.0098759
0.00657735
0.010001
0.0139731
0.00567716
0.00533573
0.000577346
-0.00735594
0.017715
-0.00434947
0.0085043
0.0141857
0.0126678
0.0123853
0.00815936
0.00872956
0.00609317
0.00494915
-0.00281237
0.00292637
0.00654934
0.00818836
0.00796719
0.0142132
0.022101
0.0237823
-0.00734166
0.0148659
0.0128356
0.00881868
0.00818783
0.0129754
0.0150913
0.0110824
0.0128296
0.0135992
0.0131307
0.0144099
0.0126159
0.0133242
0.00729914
0.00420706
-0.00524032
0.00607852
0.00810893
0.00909044
0.00877901
0.0115251
0.0103149
0.0103009
0.00204779
0.0103528
0.00952711
0.0130971
0.0114018
0.0112981
0.0123785
0.0141542
0.0136764
0.0133942
-0.00120324
0.00590215
-0.00743002
0.0170332
0.0113936
0.0135486
0.011647
0.00927762
0.0156545
0.00943892
0.00732306
0.0018851
0.00477807
0.00671853
0.00592259
-0.0107026
0.0121611
0.00612719
0.012374
0.0120664
0.00492536
0.0094156
0.0195253
-0.0106573
0.00717121
-0.00025585
0.00397335
0.000874732
0.00551845
0.00384508
0.0134026
0.00187509
0.0131826
0.00233865
0.000431761
0.00137272
-0.000557493
0.017806
0.0235721
0.00291416
0.00051571
-0.00271313
0.00345915
0.00370763
0.00996292
0.0185829
0.00765283
0.00936199
0.00781929
0.00829955
0.00577682
0.00635341
0.0104506
0.00811682
0.00932053
0.0096938
0.00898798
0.00767591
0.0114243
0.00278918
0.0117477
0.0105469
0.00971331
0.0131239
0.0140571
0.010348
0.0138463
0.0121695
0.0123302
0.0113371
0.00890153
0.00657126
0.0104429
0.00675104
0.0135094
0.0140019
0.0171036
0.00840746
0.0104243
0.0121958
0.0212084
-0.00936974
0.0137104
0.00951021
0.0118685
0.0124511
0.0111736
0.0131241
-0.0101575
0.0100922
0.00480965
0.00937832
0.00965773
0.0116847
0.00644528
0.011452
0.0103812
0.0100008
0.0142349
0.0115616
0.00777664
0.00779611
0.00989759
0.00763273
0.0101484
0.00686225
0.0120921
0.00964002
0.0117026
0.0145776
0.011719
0.00958895
0.0121327
0.0075758
0.0123413
0.00211016
0.00183912
-0.00101653
0.00574114
0.0164391
0.0168376
-0.00196598
-0.0134767
0.0133639
0.00346864
0.0196933
0.0200126
0.0197537
0.0210673
0.0181772
0.00678484
SCALARS CoVolArea double 1
LOOKUP_TABLE default
1033.97
1100.15
1350.94
1421.36
1855.28
873.622
3495.89
1778.77
665.184
984.549
845.857
876.085
902.696
1187.1
3528.98
2681.32
1618.98
1774.01
1797.57
1714.91
907.757
1722.71
1224.45
2513.4
1845.04
1126.06
1064.54
1610.57
1639.92
2399.8
1033.7
1857.09
1667.68
2016.97
1955.98
1781.91
3350.93
1285.44
1355.36
2536.31
1233.52
2241.54
849.444
2935.16
1073.68
1056.73
1337.46
1605.66
940.502
1166.99
1181.31
1426.93
1130.48
1007.48
2588.57
1019.12
1557.58
1209.99
1244.88
1444.14
1235.96
1358.67
1842.7
2313.62
1939.58
1871.47
1033.42
1902.63
2312.23
1332.46
1620.65
1498.03
561.955
4100.37
354.306
3306.37
1893.26
3318.98
694.165
1222.16
1108.93
1197.48
1239.33
1217.45
1568.57
1315.24
1552.4
1698.8
2501.05
2171.93
1739.26
2575.07
1515.65
2175.72
1312.96
2422
1659.11
1113.3
1253.76
1181.84
1844.1
1568.67
1535.88
1377.42
1420.88
2275.89
1985.1
1234.22
1858.8
1407.33
1878.42
1385.32
2412.2
1541.8
1927.01
1753.65
1398.87
1387.29
1983
1972.65
1913.03
2356.23
2076.48
1956.56
2497.84
1920.26
2201.88
1854.94
1784.43
1334.91
1253.97
1640.55
1695.05
2010.54
1499.98
1350.68
1105.63
1590.01
1784.34
2448.72
1967.98
1335.19
1982.92
3114.26
1302.89
2905.21
1488.7
2078.05
1765.87
1562.16
1442.97
1829.36
1199.01
1851.99
1337.96
1777.32
1352.01
1491.25
1604.3
2621.2
1199.21
721.827
965.796
789.503
1058.75
1769.9
1353.92
969.595
2747.21
2105.47
4165.8
1069.42
982.835
839.113
1141.75
1008.7
1040.23
1755.23
1403.99
1614.34
995.627
1080
1104.54
2456.98
986.212
1711.52
1111.38
1035.05
1147.15
2024.27
1418.26
2621.14
1236.94
1379.04
2438.83
1355.77
1080.69
1077.49
1528.67
1054.71
931.32
2448.08
1599.21
1529.24
1591.16
2586.56
1213.45
1080.52
1088.17
1670.97
1051.13
1209.15
2450.89
1301.22
2246.54
2412.45
2550.03
1975.93
1300.65
1375.51
1339.35
973.572
1541.68
1113.09
1490.1
1347.3
1116.01
1595.3
1077.58
1421.33
1021.54
1404.89
1890
2022.69
1934.57
1893.62
2011.98
1724.05
1785.53
2100.64
2012.16
1741.59
2188.61
2105.23
1312.97
1082.64
2088.98
1676.36
1068.84
1395.22
1555.9
2091.32
1906.31
2235.24
1987.1
1683.86
1926.79
2176.66
1485.91
1631.36
1188.03
1169.38
1145.86
596.216
1545.36
1756.67
2111.29
2349.46
2352.85
1873.48
1021.63
640.025
937.96
846.301
541.879
2397.91
2100.79
1188.62
1446.05
2313.75
755.473
347.599
1719.44
1107.6
1191.66
2637.93
2242.97
3603.04
3821.01
392.697
1914.54
823.944
862.993
1010.53
3441.58
2184.68
1313.21
1643.35
2750.13
1185.69
1150.32
1119.69
1035.54
1116.34
997.995
2016.34
960.314
1120.27
1218.2
2169.45
1219.6
2169.98
1139.28
1064.8
1122.73
2544.09
1322.57
2520.47
1288.66
1158.02
1408.68
1320.07
1283.25
1388.63
1431.09
1435.52
1400.91
2002.91
1629.92
1604.13
1267.81
1348.37
2928.1
2465.67
1966.1
1484.99
2029.16
1241.79
1722.59
2184
2198.66
1824.23
2243.78
1937.05
1812.6
1298.45
1791.02
1958.86
1427.11
2303.88
3017.48
1679.68
3661.56
1020.06
2065.34
1372.22
3216.93
1834.17
2183.7
1640.67
1266.96
2759.99
1640.01
1511.63
1049.67
1112.68
963.183
1927.32
1351.36
2995.82
1063.46
948.478
1370.55
1170.4
1709.37
1066.56
1213.59
2255.65
2021.39
1633.81
1614.4
1407.68
1620.53
1508.98
2793.58
1722.55
2771.23
1294.22
1349.47
1611.32
1565.76
1376.62
1657.64
1596.13
1696.87
1479.28
1983.51
2143.18
2106.57
1943.56
1785.55
1992.88
2239.58
1283.11
1430.4
1438.53
1469.78
1110.4
1566.02
2002.36
1015.13
1640.03
997.551
2231.05
1920.39
1624.26
1028.11
1639.45
1340.9
2400.85
1956.65
2432.38
2294.21
2355.51
2214.05
1180.27
1627.58
1710.35
1516.32
1420.26
1874.23
1551.74
1516.37
1349.33
1679.79
1433
1682.54
1275.7
1100.68
1067.93
1913.68
1619.11
2125.12
2084.65
1788.51
1884.4
1941.01
1641.45
1847.67
1759.79
2059.99
2250.62
2525.03
1819.48
1685.02
2009.21
2614.95
2861.15
4134.59
1908.98
2352.04
2068.29
2279.11
1810.78
2313.6
2163.12
1818.56
2413.92
2100.79
3918.1
2531.11
2353.16
1500.39
1872.49
1582.27
2100.28
2053.38
3128.64
1372.14
1342.88
2120.09
1490.11
1288.78
1333.83
1541.93
1244.51
1309.03
1424.47
1248.5
1228.29
1358.6
2031.52
2779.85
2113.96
2668.39
1687.3
1784.09
1282.76
1190.15
1692.48
1552.16
2322.7
2144.99
2242.87
1320.45
1390.23
1421.82
1335.07
1036.97
1177.58
1195
2804.34
1620.13
3472.74
1556.84
1682.63
1291.35
1307.94
1463.34
1583.69
1048.07
1453.79
1918.53
1805.78
1863.73
1968.22
3777.59
1481.25
2714.39
1420.67
1581.2
1174.94
1135.95
1796.94
3085.4
1530.03
2991.83
1828.87
2869.39
3171.01
2169.83
1139.53
1676.89
1012.03
3084.72
2249.75
1883.6
2203.49
1781.93
1445.91
1916.47
3282.19
2816.07
2469.52
2432.13
2034.31
1304.79
1540.25
1491.9
1416.74
1703.59
2143.43
1343.28
1369.45
1384.48
1342.02
1473.34
2266.15
1852.04
1788.15
2244.97
1699.53
1488.46
1633.42
1132.99
1645.74
1688.35
1616.93
1791.18
1900.87
1367.97
956.169
1080.2
1368.14
1598.14
1897.51
1723.38
1411.56
1475.41
1308.78
1264.38
1574.19
3384.59
1190.48
1244.13
1156.55
1225.07
1357.64
1250.18
3540.92
1666.67
1405.69
1262.5
1503.93
1442.4
2680.59
1118.9
1317.86
1157.94
1209.59
1502.92
1733.76
1644.22
1431.79
1423.37
1394.6
2048.11
1685.28
1715.57
1547.45
1515.93
1634.93
1764.92
1736.26
1126.54
2432.9
2197.39
2403.57
3111.62
1508.59
775.986
1021.38
2443.62
2846.75
956.684
1607.97
660.081
866.058
866.931
1513.77
749.007
1655.26
SCALARS SignedDistance double 1
LOOKUP_TABLE default
95.7533
94.9998
78.7939
72.6061
71.6578
96.0233
106.544
71.2746
103.68
95.4846
108.035
104.846
140.972
94.0307
116.961
117.105
95.1233
61.3965
67.1967
76.5736
105.089
113.924
90.2962
119.8
76.0461
73.7767
98.114
102.39
75.7874
95.911
94.567
71.4184
94.7035
72.6097
59.4128
64.2324
82.4102
77.7164
77.698
93.7921
90.4408
104.372
111.16
130.074
111.935
97.9339
110.285
113.136
104.443
106.079
93.9667
107.188
97.344
102.586
119.827
94.8269
105.597
110.074
79.5132
83.3147
80.8471
79.5432
65.5288
68.1707
64.3838
71.0326
89.9652
69.9006
73.8237
105.289
96.9717
91.7383
117.599
122.896
115.905
132.597
108.345
115.02
107.348
91.8336
102.065
105.171
103.586
93.3514
81.8944
83.5869
92.0499
83.9475
70.9162
74.8148
68.025
101.702
102.195
111.028
104.886
107.441
100.739
87.4856
83.4074
102.697
68.4377
70.4548
114.83
83.7164
88.5284
69.1211
68.8148
87.2664
68.3288
82.4574
88.526
108.121
104.182
82.4445
86.572
83.5818
86.4253
95.3568
52.7093
58.7164
67.0517
82.9702
71.6688
52.3523
70.7655
71.5267
82.6661
90.6157
71.1157
66.4022
71.0383
70.9216
95.4562
90.7774
95.2642
79.8806
83.4256
113.678
94.602
103.574
97.7539
96.0562
93.1363
114.346
104.454
98.5235
102.361
70.9164
80.5207
79.8725
85.5305
64.0745
95.3407
94.0748
84.2187
106.119
78.8043
82.0682
69.9876
116.524
112.069
107.497
102.443
110.022
104.855
137.745
117.748
125.85
116.553
116.021
118.838
101.019
105.91
108.552
101.546
103.443
95.3663
123.295
112.469
121.045
100.212
100.275
94.8225
109.265
105.322
108.277
93.7567
100.314
100.355
120.153
108.333
114.64
107.377
100.232
112.414
110.644
95.0372
103.545
100.882
99.7676
104.178
119.807
108.429
106.635
107.932
118.741
97.8806
104.406
104.306
99.9184
102.063
94.3799
112.527
107.637
111.131
112.287
111.258
102.485
90.427
86.7606
85.9864
86.1092
73.8485
81.1309
67.6348
87.1713
85.9728
63.0884
77.5687
67.0713
84.9734
90.5658
67.3767
64.1453
66.7837
61.6105
65.4082
67.3981
64.3178
66.2785
62.6321
86.0811
71.2682
64.686
82.2766
90.6608
70.059
73.2846
92.017
77.5259
79.3441
70.7238
68.4123
77.0076
71.7675
71.7803
68.8421
71.6139
108.567
107.305
102.494
98.6563
101.837
104.995
83.6924
99.8853
89.8932
70.1561
82.4542
78.7611
98.8256
112.502
100.448
113.729
126.019
112.176
115.633
133.441
125.194
125.118
113.336
114.677
110.939
107.52
137.436
117.517
110.622
110.974
125.955
115.687
117.349
119.72
107.245
100.618
113.736
114.742
113.637
112.138
118.475
93.9067
98.202
97.0318
97.54
90.6137
102.083
105.119
100.239
99.2747
94.3335
110.198
103.591
109.992
91.2502
99.1241
97.5202
106.803
103.064
108.629
88.9131
89.7032
87.5235
87.1711
78.4149
82.832
77.5881
95.4409
93.9336
82.8179
86.9926
86.123
90.8659
88.8421
73.6073
73.8516
69.8935
73.2885
72.1523
69.3344
70.8066
71.6773
76.2997
82.2654
77.9009
78.0751
105.874
103.801
107.62
107.411
100.26
103.934
102.317
115.934
114.702
100.547
104.72
100.622
109.72
108.991
89.336
90.208
82.1962
104.092
98.9732
106.398
90.4642
92.1224
99.2098
104.362
102.556
100.781
96.6725
107.304
78.8544
85.9748
96.7436
91.4254
88.9171
70.1532
68.6352
74.389
69.72
72.0057
67.5014
70.7157
117.44
94.639
96.1697
89.7463
92.5295
103.716
80.5828
85.0919
77.4185
74.2347
74.793
81.6696
67.275
70.211
68.9038
65.8955
68.6752
68.0194
72.4971
88.5657
79.4337
80.712
75.8398
88.7469
75.3881
67.577
93.7949
95.3857
103.324
81.6086
88.4185
75.8241
99.5403
98.1994
87.8237
66.975
75.3151
78.2569
83.0822
100.322
95.5456
91.2477
90.871
98.9877
72.8362
82.4707
66.7485
88.8059
90.4429
96.5929
74.8829
84.0395
79.7578
93.9594
92.8206
92.0608
66.1995
63.3757
69.6146
54.315
52.3071
52.0787
67.8426
63.4531
66.338
81.0638
68.0518
64.883
94.8682
70.3964
72.9929
80.9435
74.3938
97.1281
99.1197
61.5198
62.0495
58.5748
57.8919
53.3173
63.1712
58.903
73.6636
96.6239
100.399
98.6006
97.5663
73.6927
71.793
82.7369
71.8389
83.6295
78.9762
85.4528
67.512
67.6444
78.7138
73.2639
69.9142
67.8902
73.4847
73.5735
69.7031
71.9457
68.5147
72.8993
73.0263
73.7972
114.846
106.954
112.232
81.9072
94.9859
86.6615
85.6512
90.4137
81.0746
79.9909
76.1593
83.152
70.5914
74.651
75.3655
71.3248
89.0737
78.8543
87.573
115.799
115.522
112.56
118.925
102.877
96.704
84.7741
112.587
116.823
98.787
92.7655
101.344
96.0027
92.3808
117.925
108.376
85.3625
94.6997
91.119
83.8367
87.945
90.8867
91.0859
97.2515
107.843
114.488
103.65
101.204
105.771
99.0775
101.592
98.7815
100.46
94.5371
96.9509
103.217
101.268
103.356
105.813
104.084
99.7938
71.5884
71.2745
71.5648
68.4517
71.8387
88.1156
83.9798
85.5504
81.5806
75.463
88.4563
76.1635
82.4027
84.9717
83.7876
75.0821
78.7959
74.858
103.542
73.9332
84.2842
96.6215
96.788
60.8823
73.2087
65.609
56.047
59.2746
99.8919
98.9932
99.5473
92.1828
83.1098
75.0936
80.933
92.6718
115.549
85.3017
95.5829
120.237
114.907
78.1864
89.9934
85.0351
77.0903
79.154
121.53
113.718
123.415
110.937
99.3365
86.956
94.2465
97.3758
88.8811
85.2673
85.7444
80.0271
72.4659
94.4252
77.2553
84.7851
91.095
87.7858
68.6586
67.5754
67.3176
67.2634
73.9951
78.8298
74.0457
71.3066
103.971
107.71
103.924
107.191
117.702
110.224
104.503
109.048
114.282
124.019
98.1676
111.881
107.955
100.017
102.887
124.642
111.3
116.341
