# vtk DataFile Version 4.2
vtk output
ASCII
DATASET POLYDATA
POINTS 642 double
-172.304 317.29 29.0614
171.317 324.477 26.8334
-175.577 -272.777 48.075
184.79 -280.032 48.6661
1.17347 -187.103 376.962
1.57671 174.05 334.178
1.99932 -127.366 -200.726
1.24868 228.02 -254.181
263.466 45.007 -133.327
257.837 17.0083 234.886
-247.129 44.334 -130.605
-243.807 19.0156 230.174
-229.218 186.007 111.449
-148.386 110.934 321.595
-74.6825 243.378 177.747
79.3321 247.104 182.387
1.38676 376.089 20.6678
112.565 341.991 -134.185
-105.603 337.053 -131.428
-166.269 139.742 -238.039
-270.636 207.334 -56.2357
-264.899 29.8664 48.1923
154.977 113.896 326.847
217.651 178.151 115.637
-168.657 -101.193 344.562
3.04783 17.6516 420.758
-243.654 -148.171 -41.7716
-240.894 -155.48 187.506
2.29572 43.904 -303.797
-149.866 -45.2561 -221.022
270.645 213.574 -61.6778
172.184 142.115 -241.55
256.565 -160.072 190.315
177.981 -102.547 349.361
119.906 -290.206 259.866
-116.406 -287.59 258.219
0.580083 -318.58 48.1678
-106.259 -258.715 -109.795
112.617 -261.633 -111.996
156.205 -47.4717 -224.112
253.591 -157.085 -44.0695
278.846 18.7571 55.1741
-214.478 257.863 71.354
-170.64 215.236 140.497
-134.979 302.136 90.4962
-206.137 66.3679 284.013
-191.639 135.95 242.188
-233.171 90.2556 198.493
-41.5979 210.898 277.121
-116.817 181.311 274.763
-75.8108 148.251 338.91
-50.9005 333.646 89.1707
-85.3226 365.421 23.0255
46.4584 212.33 277.543
2.81489 253.575 191.47
92.911 369.33 23.1583
56.6411 334.774 88.5663
134.451 307.112 88.6142
-59.8475 389.271 -52.6277
-143.648 345.288 -49.4885
151.015 355.797 -52.16
64.124 391.34 -53.0632
-56.0531 292.403 -203.656
1.38176 352.375 -141.987
59.8102 293.886 -204.997
-202.444 279.971 -99.0695
-232.6 276.336 -13.9082
-90.2665 188.102 -258.875
-143.148 246.618 -192.32
-265.751 146.598 -90.0898
-231.974 187.54 -147.357
-219.993 89.6723 -189.763
-267.344 208.821 28.5343
-253.774 59.7732 -40.676
-283.881 150.302 -15.994
-246.532 146.846 70.849
-254.801 17.0792 152.057
160.26 217.994 147.308
216.056 261.807 69.084
81.5189 149.535 341.917
122.469 184.051 278.661
246.258 88.9914 201.673
198.536 137.094 249.141
215.674 67.5694 289.166
-78.9684 70.3694 383.865
2.38872 103.375 387.348
-216.314 -44.2237 293.217
-164.593 18.6207 345.956
0.957378 -72.1759 409.593
-83.8986 -36.2545 395.878
-95.5248 -152.028 378.915
-259.635 -63.4427 109.947
-246.586 -77.6695 216.828
-236.675 -61.7215 -85.2999
-263.069 -73.0331 2.72816
-213.018 -208.982 122.645
-252.011 -157.146 43.6683
-221.584 -219.578 -1.63999
-171.67 41.5435 -246.051
-211.813 -2.53115 -181.547
1.82409 128.68 -298.021
-91.0779 94.1349 -291.151
-83.885 -93.9395 -225.256
-87.7603 -9.60788 -277.693
1.24556 -41.3599 -274.918
148.378 250.891 -196.419
93.6806 189.961 -260.945
234.013 279.67 -16.9173
206.549 286.632 -102.066
232.091 88.778 -194.719
234.177 189.893 -152.241
270.745 134.094 -95.7439
227.029 -216.9 123.75
213.672 -236.945 223.984
157.342 -289.799 173.734
227.133 -45.1146 298.398
240.783 -139.883 275.251
264.014 -80.8784 219.031
67.6373 -252.259 338.5
160.223 -208.764 328.138
99.7403 -155.373 380.228
64.5693 -322.655 179.63
104.09 -315.764 47.2371
-64.4002 -250.596 336.499
1.06085 -299.516 266.615
-97.987 -313.2 47.6369
-61.7742 -321.029 179.291
-149.874 -285.588 171.797
67.3525 -311.354 -37.2754
156.654 -287.134 -37.5841
-148.965 -281.399 -35.6407
-63.6837 -311.194 -37.0761
62.8753 -210.788 -163.351
0.800672 -265.344 -115.399
-58.5352 -210.258 -163.567
200.446 -221.446 -85.6562
235.855 -226.474 -3.55702
87.7044 -96.3284 -226.75
139.154 -182.303 -159.668
248.521 -58.3358 -85.869
213.844 -123.559 -123.465
222.255 -3.31061 -186.13
262.965 -164.496 43.9062
266.408 50.2434 -51.4384
277.53 -77.325 2.93711
272.173 -65.9352 112.702
272.593 18.8237 158.493
87.4952 -33.7029 402.191
171.868 18.9848 352.446
83.9215 70.5555 388.843
-201.308 -228.619 224.636
-155.005 -204.613 323.29
-227.294 -139.816 269.628
-132.136 -178.248 -156.269
-189.507 -215.818 -81.276
-207.478 -117.155 -120.394
179.228 41.4702 -250.084
90.5526 -9.95984 -279.69
93.0208 94.2185 -294.287
260.501 110.891 79.9933
283.758 146.975 -19.6667
265.393 215.328 26.1021
-196.977 288.932 51.5399
-177.609 283.014 82.7376
-153.9 312.196 63.3116
-203.738 202.395 128.207
-195.971 250.088 99.0887
-226.991 223.804 88.9679
-109.619 287.724 113.814
-158.036 273.507 105.789
-124.157 228.935 156.977
-227.498 43.3231 258.75
-223.976 78.3603 242.087
-240.937 55.0301 216.642
-173.409 124.319 284.016
-200.298 103.052 265.64
-179.614 89.1188 305.112
-220.859 142.757 151.762
-214.824 115.1 221.106
-203.314 155.323 183.984
-20.5202 194.97 306.686
-59.118 182.982 310.206
-35.9075 162.564 339.101
-97.637 206.508 246.347
-80.4147 197.944 277.993
-60.0938 221.426 246.893
-113.372 130.961 332.99
-98.8351 167.278 307.93
-133.506 149.499 300.649
-177.516 174.293 205.021
-157.245 160.724 260.621
-141.5 190.331 228.971
-110.053 334.565 59.4219
-127.042 343.387 25.3697
-65.9209 301.095 119.759
-89.6817 320.298 88.9533
-47.8973 375.945 22.2857
-67.8482 352.985 57.5527
-29.7393 359.388 56.67
24.2009 195.432 307.189
1.75526 214.874 280.662
43.3696 252.807 190.47
23.9731 230.172 250.536
65.8891 224.818 246.614
-19.0809 228.995 250.845
-35.8828 251.328 188.115
130.945 351.621 24.2279
113.941 341.366 58.5006
153.365 318.585 61.333
33.3723 358.753 55.8593
74.9525 355.629 57.5991
52.7732 377.267 21.8258
109.09 288.799 117.296
93.7554 325.351 88.2703
70.594 301.932 121.969
-22.9891 305.235 129.966
26.2013 304.588 130.694
0.746981 334.967 91.1357
-114.667 362.389 -14.2467
-160.194 333.857 -10.5155
-30.7707 388.955 -15.2778
-73.3484 381.744 -15.5499
-126.29 346.438 -89.8591
-101.456 373.985 -53.3214
-84.5497 369.181 -91.9434
161.233 343.072 -14.1485
122.602 369.325 -15.1142
90.3162 372.82 -93.4985
109.703 379.094 -54.0388
134.414 353.519 -91.9733
79.7154 385.033 -15.5783
34.4436 390.15 -15.5052
-27.7644 262.614 -232.604
1.19283 295.932 -208.744
30.5025 263.263 -233.341
-57.3437 350.931 -141.149
-29.8878 326.336 -175.536
-82.0738 318.524 -169.09
87.7589 321.662 -170.935
32.803 326.509 -175.525
61.5451 352.777 -141.802
1.65607 391.437 -53.2898
34.4485 379.157 -98.4138
-31.038 377.817 -97.8645
-194.359 311.677 -30.7046
-205.303 299.431 6.79098
-154.582 310.579 -115.64
-175.53 315.008 -74.331
-253.826 245.385 -34.5829
-220.986 280.687 -54.9261
-239.201 246.338 -78.5213
-45.9616 209.864 -258.726
-72.8969 244.224 -234.122
-155.195 193.674 -217.046
-116.619 219.511 -228.657
-130.597 164.349 -252.355
-100.179 272.931 -201.196
-124.794 294 -163.995
-253.268 91.494 -111.679
-244.729 116.253 -138.058
-238.009 65.5106 -159.931
-255.92 198.787 -105.139
-254.951 165.928 -118.882
-275.234 175.153 -74.8173
-196.047 114.879 -216.864
-223.601 140.918 -167
-196.832 163.264 -193.112
-176.714 267.358 -147.168
-191.646 217.775 -172.323
-221.098 234.879 -126.654
-226.463 270.345 29.2188
-275.119 211.601 -11.8688
-253.006 243.537 7.20112
-242.67 235.848 51.2155
-252.987 202.386 69.7036
-252.878 53.1142 -97.3445
-263.828 109.439 -67.0215
-273.651 114.625 0.00142005
-277.866 120.421 -23.1582
-262.761 52.7136 11.5743
-280.971 152.176 -45.0489
-287.796 174.632 -33.7027
-246.724 55.321 181.9
-251.605 19.1661 197.321
-244.778 169.81 91.9401
-237.251 109.89 136.543
-263.481 16.5935 95.2975
-250.318 64.5328 123.094
-259.684 86.1759 51.8073
-284.356 177.267 3.60742
-276.378 153.976 15.0952
-269.709 180.05 44.7769
178.42 287.308 81.1095
198.328 292.905 51.1146
119.566 234.671 166.435
155.483 277.486 106.409
226.262 233.36 79.9103
195.461 257.411 93.6628
194.097 199.596 129.676
40.3783 162.799 340.182
64.5532 184.103 311.886
139.951 152.48 305.27
104.94 169.502 311.342
119.355 133.302 337.423
86.2076 200.281 279.855
101.871 210.574 248.443
254.682 54.1561 219.047
234.621 79.2227 246.487
239.358 41.8758 263.529
211.038 146.785 199.773
224.025 114.542 226.476
232.19 125.513 176.2
187.391 91.9622 310.528
208.9 105.507 271.064
180.783 127.44 289.412
143.187 193.063 237.143
163.138 163.102 266.616
180.604 171.389 219.278
-36.9138 128.54 366.346
1.83775 141.8 362.618
-116.816 93.4811 355.015
-79.0988 111.494 363.83
2.8589 60.3939 407.385
-37.8475 86.7817 390.106
-37.3905 44.0924 406.958
-230.137 -13.0976 263.389
-213.479 17.6239 290.818
-167.671 -40.5538 346.565
-192.48 -12.9659 320.432
-197.103 -72.973 321.356
-188.042 44.8967 317.025
-159.385 67.3318 336.786
-0.823405 -134.168 386.861
-49.2778 -117.661 390.922
-53.364 -172.017 384.157
-37.7399 -5.96304 416.735
-41.5011 -53.5555 407.762
2.93066 -21.5999 423.705
-134.75 -128.364 364.962
-92.8514 -96.2633 385.602
-130.328 -72.5056 372.973
-124.133 45.6583 369.301
-128.35 -9.5646 374.688
-81.0762 19.7465 397.489
-252.293 -22.6467 185.857
-247.196 -29.5403 222.648
-267.491 -19.0569 79.1896
-261.854 -19.9398 129.532
-244.003 -121.848 204.414
-249.392 -71.5026 172.134
-246.464 -111.153 154.323
-239.988 3.84343 -119.693
-243.864 -6.43572 -67.266
-256.268 -112.901 -18.749
-254.9 -75.82 -33.1207
-243.302 -112.423 -57.7981
-260.563 -22.7706 -8.30054
-266.705 -23.0817 28.5021
-196.409 -246.898 81.1548
-222.089 -220.59 46.6662
-201.781 -248.836 21.7914
-233.897 -157.978 115.943
-235.392 -187.494 77.2994
-231.339 -185.918 161.383
-234.865 -185.041 -22.6857
-239.883 -188.359 22.6922
-252.537 -154.467 1.92538
-264.304 -68.066 47.2265
-261.285 -116.948 20.7218
-254.985 -111.433 73.4557
-219.715 42.0202 -189.843
-232.78 19.648 -157.239
-172.271 90.1606 -246.475
-197.963 66.2038 -221.577
-184.592 -21.5339 -203.989
-193.807 18.5849 -216.695
-164.616 -3.38724 -236.27
1.35295 176.828 -278.019
-47.0904 159.962 -282.96
-45.4348 68.7974 -303.032
-46.5405 111.237 -298.355
2.47127 85.0901 -307.89
-93.1619 139.527 -280.378
-131.85 118.893 -269.762
-49.4427 -110.454 -218.538
-43.3426 -63.9297 -257.804
1.66586 -74.0765 -252.167
-122.284 -29.8988 -252.175
-85.3681 -48.0628 -257.734
-115.462 -70.9391 -227.331
1.50316 -1.09884 -292.492
-45.1456 -26.3241 -279.887
-45.616 15.2173 -294.319
-135.458 67.3666 -273.416
-91.2253 41.2152 -290.413
-132.187 15.7021 -267.363
[...]
POINT_DATA 642
SCALARS Mean_Curvature double 1
LOOKUP_TABLE default
0.00884492
0.00702854
0.00809539
0.0085201
0.0020562
0.0104781
-0.011476
0.00533932
0.0112187
0.00878726
0.0125488
0.010023
0.0093951
0.0073048
-0.00209164
0.000519213
0.00183005
0.00912911
0.00811457
0.00749831
0.00810448
0.00649048
0.00764639
-0.00189035
0.0046324
0.0109495
0.00957794
0.00716997
0.00532337
0.00554799
0.0112077
0.00694276
0.00740294
0.00642807
0.00745997
0.00964724
0.000266684
0.00859659
0.00884357
0.00574028
0.00647456
0.00271601
0.0086645
-0.00348136
0.00880809
0.00755854
0.00627235
0.0055971
0.00674827
0.00677689
0.0072445
0.00659054
0.00885291
0.00602833
-0.0013231
0.0097313
0.00525153
0.00593565
0.0149984
0.00692792
0.0129842
0.0134431
0.00647031
0.00284175
0.00633257
0.00738985
0.0119243
0.00530701
0.00416528
0.00424545
0.00960981
0.00643176
0.00959642
-0.00598637
0.0137209
-0.0107171
0.000324519
-0.00374114
0.0105892
0.00750864
0.00713285
0.00715107
0.00678496
0.00717951
0.00633489
0.00771923
0.00531223
0.0069221
0.00569579
0.0038336
0.0087349
0.00208952
0.0050542
0.00125944
0.0063699
-0.00634822
0.00845026
0.00934187
0.0094793
0.0068884
0.00573042
0.00815389
0.00467888
0.00870982
0.00624247
0.00466457
0.00496024
0.00922449
0.00675889
0.0074126
0.00614599
0.0015339
-0.00301339
0.0101819
0.0058703
0.00255256
0.0103323
0.00594997
0.00904467
0.00843539
0.0082994
0.00921278
0.00666531
0.00889907
-0.00227114
0.00676528
0.00902117
0.00803598
0.00654868
0.0090334
0.00892454
0.00882408
0.00437016
0.000589522
0.00679086
0.00818837
0.00977577
0.00442432
0.00699065
-0.000451271
0.00613493
0.00721592
0.00424372
-0.00548202
0.00681176
-0.000764357
0.00597218
0.00528186
0.00667401
0.00670253
0.00807193
0.0077715
0.0103889
0.00593464
0.00792529
0.00733444
0.00913473
0.00796377
0.00770261
-0.000586237
0.00957368
0.0120712
0.00861573
0.00940456
0.00804513
0.00401682
0.00761852
0.00740351
0.000932778
0.00620972
-0.00639159
0.00756206
0.0071519
0.00871202
0.00717325
0.00724818
0.00740105
-0.00313437
0.00615648
0.00489255
0.00690999
0.00708998
0.00634702
0.00391264
0.00725977
0.00550612
0.00733432
0.00753704
0.00716662
0.00525805
0.0067917
0.00483905
0.0055116
0.00492018
0.00194912
0.00358321
0.0102442
0.00876492
0.00694034
0.00661541
0.00807512
0.00132359
0.00636973
0.00630836
0.00651489
0.000549913
0.00750838
0.0077385
0.00739845
0.00392196
0.00999539
0.00888474
-0.000341427
0.0054158
0.00305791
0.00578142
0.00412319
0.00192079
0.00733412
0.0059099
0.00951275
0.0104568
0.007036
0.0141198
0.00911391
0.0053292
0.00992017
0.00839789
0.0143075
0.00829366
0.0102172
0.00939979
0.00661969
0.00597041
0.00654502
0.00949021
0.00583978
0.00757918
0.00772336
0.00427594
0.00843185
0.00767076
0.00729483
0.0071723
0.0100005
0.00875147
0.00461888
0.00543869
0.0092418
0.00699426
0.00579271
0.00375242
0.00681462
0.00344336
0.00495776
0.00683855
0.00632504
0.00371927
0.00350634
0.00441528
0.00813188
0.0107366
0.00989972
0.0167258
0.00751163
0.00136459
0.00285876
0.00619241
0.0053957
0.00672711
0.00789286
0.0122777
0.00795744
0.0072181
0.0136852
0.0050448
-0.000809161
0.00539522
0.0116794
-0.00216702
0.00673311
0.0244772
0.00457754
0.00901492
0.0120359
0.000478783
0.00385617
1.25577e-05
-0.00162593
0.0213676
0.00374967
0.0186822
0.00949552
0.00870343
-0.00266491
0.00582373
0.00869812
0.00685441
-0.00141264
0.00543455
0.00671381
0.00781836
0.0079518
0.00771185
0.00721222
0.00478665
0.00708795
0.00678875
0.00673304
0.0042411
0.00565821
0.00349833
0.0076597
0.00792816
0.00788713
0.00487546
0.00754104
0.00446799
0.00663223
0.00850732
0.00709384
0.00678475
0.00791818
0.00668617
0.00736232
0.00223243
0.00739026
0.00395112
0.00351073
0.00829459
0.00762301
0.00749794
-0.00241047
0.00178616
0.0110316
0.0109771
0.0045041
0.0133037
0.00631838
0.00351165
0.00604678
0.00664437
0.00549397
0.00735343
0.00179422
0.00637838
0.00613376
0.00534404
0.00264261
-0.00133417
0.000961081
0.0044443
-0.004601
0.00708454
0.00413279
0.00463236
0.002357
0.00537009
0.00506745
0.00736819
0.00848523
-0.00797558
0.010539
0.0124554
0.00702808
0.00663478
0.0101814
0.00324277
0.00842076
0.0013174
0.00881509
0.00865
0.00856856
0.00802628
0.0063009
0.00826832
0.00832243
0.00250851
0.00603275
0.00811687
0.00665898
0.00993721
0.0080956
0.00911675
0.000276743
0.0067345
0.00338143
0.00805655
0.00668464
0.00704845
0.00548583
0.00774012
0.00627748
0.00850612
0.00842173
0.00905685
0.00640592
0.00358491
0.0053198
0.00596572
0.00631287
0.00586495
0.00428722
0.00773386
0.00649602
0.00908128
0.00747052
0.0067744
0.00723866
0.00586543
0.0111204
0.00508138
0.00978506
0.00305317
0.00305956
0.00672752
0.00970283
0.00569273
0.00996576
0.00540237
0.00782046
0.00582877
0.00463879
0.00240434
0.00292289
0.0134005
0.00796254
0.0083001
0.0111024
0.0126144
0.00653909
0.0053611
0.00558102
0.00626381
0.00754693
0.00767207
0.00694496
0.00521963
0.0106911
0.0127063
0.0101717
0.0109621
0.010062
0.0084409
0.00883385
0.0091423
0.00568039
0.0102266
0.00809623
0.00749783
0.00754234
0.00756386
0.00198346
0.00735459
0.00985916
0.00558817
0.00448966
-0.000467263
-0.0030445
0.0113358
-0.00162278
0.00649527
0.0104146
0.00848258
0.00950882
0.00633767
0.00681198
0.0018704
0.00183926
-0.00209901
0.00112125
0.00585168
0.00667671
0.00658894
0.010237
0.0139796
0.0148431
-0.00134362
0.0097157
0.00915895
0.00652089
0.00858173
0.00880746
0.00976192
0.00887321
0.00915743
0.0093632
0.00893869
0.0093095
0.00878577
0.0102379
0.00584905
0.00492899
-0.0019766
0.00513801
0.00638694
0.00721439
0.00850219
0.0083362
0.00745538
0.00849383
0.00252386
0.00710737
0.00714463
0.00885006
0.0082295
0.00809112
0.00865883
0.0116796
0.00878027
0.0097414
0.000930142
0.00638278
-0.00680718
0.00939355
0.00714415
0.00759963
0.00837857
0.00794409
0.00671735
0.00688721
0.0065585
0.00123441
0.0046169
0.00644461
0.00564253
-0.00684072
0.00830188
0.00728197
0.00961073
0.00794381
0.00251756
0.0118375
0.0107215
-0.00848042
0.0105246
-0.00233857
0.00434962
0.000897747
0.0026047
0.00243657
0.0108487
0.00413416
0.00946142
0.00179865
0.0011745
0.00174906
0.000110146
0.0122892
0.0142995
0.00167459
0.0017282
-0.00186916
0.00282944
0.00264662
0.00695239
0.0128683
0.00650877
0.00688327
0.00612521
0.0063634
0.00369195
0.00611511
0.00816019
0.00700719
0.00685669
0.00711802
0.00711695
0.00645483
0.00840674
0.00558206
0.0101255
0.00706649
0.00763372
0.00887183
0.0089474
0.00952637
0.00935778
0.00860175
0.00818626
0.00808243
0.0127159
0.00846843
0.00522659
0.0062018
0.00821757
0.00935243
0.0111044
0.0084842
0.00824741
0.00657159
0.00794908
-0.00570488
0.00895658
0.00689993
0.00886957
0.00866267
0.00811567
0.00756055
-0.00646784
0.00680265
0.00347462
0.00822161
0.00758703
0.00745676
0.00676471
0.0088392
0.00806787
0.00784043
0.00986874
0.00809804
0.00666908
0.00644915
0.00749411
0.00635388
0.0078909
0.00595129
0.00837193
0.00724008
0.00792429
0.0109901
0.00850172
0.0073042
0.00861123
0.00829946
0.00539825
0.00115114
0.00237233
-0.00269863
0.00673974
0.00872245
0.0125298
0.00124533
-0.00737302
0.00919097
0.00773853
0.010851
0.0104271
0.0126946
0.0120816
0.012102
0.00503844
SCALARS CoVolArea double 1
LOOKUP_TABLE default
1603.37
1652.36
1881.35
1947
2253.98
1379.27
3053.02
2145.75
1222.28
1538.44
1316
1430.49
1867.99
1849.31
3578.85
3078.14
2197.17
2469.65
2453.22
2346.56
1943.79
2535.89
1915.53
2848.43
2457.16
1902.33
1733.24
2013.62
2276.92
2652.74
1874.89
2472.72
2105.99
2615.33
2712.12
2564.52
3477.31
2012.62
2078.9
2786.8
1862.05
2667.92
1516.37
3147.79
1577.67
1693.17
1975.93
2074.64
1500.8
1764.83
1798.11
1966.92
1787.04
1574.27
3057.47
1735.08
2069.24
1636.59
2195.16
2150.06
2009.63
2294.08
2432.26
2901.08
2505.81
2536.83
1770.6
2463.69
2819.53
1823.42
2375.36
2125.33
1547.23
3563.16
954.713
3035.02
2234.66
3593.47
1350.34
1836.8
1719.57
1699.83
1834.03
1842.54
2246.29
1945.19
2135.49
2364.76
2951.67
2804.53
2361.91
2965.78
1895.73
2559.95
1882.32
2814.03
2231.08
1789.41
2026.58
1837.44
2432.44
2321.33
2279.96
2116.58
1999.56
2828.12
2524.2
1984.22
2583.02
2088.46
2518.08
2041.93
2906.68
2434.58
2483.8
2303.33
2258.48
1874.6
2673.64
2743.57
2474.48
2824.66
2635.81
2643.91
3181.88
2531.76
2745.74
2443.41
2469.01
2056.22
1967.29
2363.96
2170.73
2602.95
2044.81
2141.82
1870.13
2300.1
2433.01
2920.9
2535.87
1945.83
2473.21
2958.34
1855.84
3208.39
1947.44
2750.89
2429.29
2256.12
2264.69
2642.1
2025.37
2430.29
2065.78
2439.75
2124.4
2206.52
2357.97
3207.56
1716.72
1446.84
1651.78
1437.97
1743.06
2349.65
1818.43
1612.71
2710.26
2304.13
3995.36
1708.27
1594.23
1421.22
1808.38
1626.18
1666.03
2377.97
1983.81
2347.67
1579.28
1678.7
1711.51
2758.8
1536.69
2154.79
1734.71
1647.36
1809.62
2687.02
2115.64
3042.51
1822.27
2004.17
2702.8
1724.87
1747.92
1667.2
2097.19
1627.06
1509.83
2979.53
2099.48
2056.3
2083.38
3061.21
1863.31
1690.65
1743.45
2175.94
1652.62
1840.93
2571.78
1702.65
2636.37
2975.85
3080.1
2542.83
1980.39
2050.68
2160.78
1751.03
2216.68
1918.28
2348.76
1997.14
1865
2453.67
1947.89
2180.56
1825.99
2211
2434.51
2576.07
2467.86
2601.52
2561.11
2318.37
2378.24
2618.53
2685.78
2747.45
3043.97
2989.97
2076.08
1792.68
2686.09
2345.24
1874.43
2112.42
2358.53
2559.64
2478.07
2755.24
2508.79
2278.33
2467.21
2717.17
1970.74
2229.38
1864.71
2086.7
1832.33
1410.66
2131.96
2346.31
2678.72
3006.2
3018.84
2704.68
1686.67
1680.97
1705.9
1634.57
1493.96
2426.86
2278.02
1921.37
1870.07
2761.68
1311.74
1286.46
2098.35
1608.49
1889.74
2818.11
2614.37
3479.39
3571.53
1261.28
1961.54
1495.95
1458.29
1732.59
3645.6
2459.67
1796.92
2086.84
3105.67
1770.62
1738.44
1808.16
1661.25
1763.46
1568.91
2485.24
1572.42
1721.07
1828.91
2605.2
1739.74
2488.47
1782.57
1680.34
1810.87
3003.03
1998.29
2999.34
1916.91
1777.83
2093.25
1944.45
1921.95
2014.82
2146.43
2042.36
2013.64
2600.61
2225.95
2196.54
1916.7
2048.5
3078.78
2873.26
2496.67
2250.92
2643.26
2027.25
2324.68
2714.78
2792.52
2577.92
2930.51
2689.17
2138.99
1868.81
2362.25
2389.72
1739.06
2511.13
3013.28
2113.5
3516.95
1631.29
2399.83
1832.94
3156.67
2405.29
2628.7
2229.71
1935.01
2986.66
2330.11
2164.07
1721.24
1785.46
1688.46
2522.75
2019.84
3215.96
1759.89
1594.49
2124.1
1852.81
2163.27
1734.27
1913.44
2665.36
2555.34
2336.16
2269.52
2092.07
2271.28
2263.64
2928.92
2222.35
2797.28
1977.21
1961.81
2232.78
2147.92
2006.72
2334.92
2462.27
2531.76
2333.19
2540.48
2594.61
2697.9
2506.33
2365.84
2538.94
2783.88
1980.25
2138.61
2255.67
2176.21
1888.96
2272.92
2654.32
1737.95
2286.49
1703.36
2753.84
2471.02
2222.01
1726.31
2241.66
2135.67
3079.2
2773.34
3073.38
2787.57
2761.12
2785.5
1977.91
2185.55
2278.67
2227.51
2109.91
2699.09
2153.91
2111.05
1978.22
2411.28
2092.37
2266.73
1719.15
1760.05
1870.36
2583.23
2377.46
2584.49
2832.88
2542.95
2563.6
2492.05
2366.53
2568.96
2766.73
2933.2
3138.95
3069.75
2458.16
2492.26
2579.12
2920.5
3212.75
3954.15
2584.66
2938.41
2853.66
2854.19
2514.9
2874.31
2914.56
2436.87
3003.56
2703
3868.51
3036.7
2774.4
2162.19
2481.06
2380.99
2981.91
2945.81
3425.43
2072.42
2030.93
2689.17
2122.96
1994.56
2046.7
2273.51
1920.82
2009.7
2180.68
1976.75
1924.72
2036.06
2622.98
2848.9
2458.59
2789.18
2346.25
2283.6
1904.54
1836.48
2222.06
2246.84
3019.43
2864.18
2938.91
2052.94
2074.67
2181.26
2048.66
1719.21
1935.43
1945.88
2917.17
2275.31
3539.55
2351.59
2319.24
1968.71
2054.61
2076.23
2262.95
1687.98
2047.62
2470.55
2220.45
2276.15
2515.81
3643.04
2310.87
3098.62
2222.16
2294.89
1883.19
1800.02
2429.23
3219.86
1912.3
3169.81
2322.7
2954.97
3139.26
2523.54
1812.79
2093.11
1624.31
3118.68
2492.99
2304.86
2564.94
2362.54
2234.27
2566.5
3521.29
3129.54
3015.43
2897.21
2668.96
2131.68
2136.23
2175.21
2040.85
2295.29
2756.31
1953.99
2112.54
2012.04
1972.87
2165.8
2980.43
2607.2
2600.05
2640.52
2501.89
2125.78
2182.02
1881.39
2400.52
2422.51
2343.12
2529.48
2697.44
1981.12
1658
1677.66
2036.1
2317.9
2848.43
2668.32
2409.67
2219.3
2017.75
1943.54
2347.01
3419.98
1909.42
1957.08
1841.67
1926.7
2088.56
1972.76
3503.17
2346.66
2065.78
1925.28
2276.42
2228.89
3066.24
1815.79
2022.88
1829.89
1923.36
2254.96
2240.85
2320.05
2049.96
2035.17
2080.97
2572.69
2408.99
2344.28
2229.97
2258.19
2463.72
2581.83
2580.26
1648.02
3017.42
2602.62
2690.32
3323.61
1910.9
1571.3
1615.2
2410.33
3023.48
1733.9
2077.14
1346.64
1678.52
1747.36
2323.92
1528.13
2270.76
SCALARS SignedDistance double 1
LOOKUP_TABLE default
146.522
144.814
123.276
114.679
106.463
150.009
163.904
110.923
154.413
149.245
166.547
160.991
201.588
147.911
182.393
181.071
146.075
99.5359
106.627
120.438
141.278
177.518
142.067
179.729
120.029
115.56
152.249
158.306
118.843
148.932
140.902
113.746
146.496
113.89
92.7418
98.1737
123.971
122.746
120.895
144.808
142.868
163.99
166.984
191.62
171.507
152.674
170.324
175.962
164.494
165.611
147.508
166.849
147.768
161.85
183.427
144.201
164.891
169.46
117.302
124.153
120.442
116.444
105.166
104.673
103.208
114.151
136.37
110.98
115.497
162.031
140.314
140.337
166.375
183.501
179.218
192.799
170.844
177.528
163.835
144.341
160.391
164.164
162.326
145.278
129.879
131.67
143.589
132.807
109.976
116.953
106.953
160.258
160.409
170.527
164.717
155.935
154.558
134.444
130.097
155.212
108.555
111.638
161.756
130.432
137.41
109.677
108.636
132.377
109.72
127.199
131.503
158.162
148.235
118.865
126.285
131.07
126.765
149.2
84.0075
92.9642
105.529
123.552
112.723
84.4456
101.507
113.654
123.582
130.465
113.211
107.418
114.195
112.98
144.084
134.821
144.028
124.308
124.694
160.252
142.141
158.456
153.264
146.454
145.551
172.372
162.492
154.411
161.022
111.562
127.209
126.216
128.209
100.534
140.671
143.766
132.287
161.076
123.49
128.066
109.54
173.774
169.581
163.227
156.028
167.884
160.075
198.175
177.496
179.923
179.345
176.826
183.072
156.687
164.066
168.185
158.329
160.644
149.59
188.556
173.521
188.041
157.363
156.922
148.592
171.784
165.221
170.717
147.342
156.808
156.911
184.463
167.908
177.225
162.59
148.99
175.716
171.351
144.688
159.285
155.752
156.489
163.386
182.997
168.805
167.63
169.12
182.876
146.638
159.64
158.815
156.13
157.094
144.217
175.485
167.797
173.617
174.018
172.502
161.554
136.022
133.382
130.962
131.695
111.448
121.135
103.741
131.883
130.857
97.8231
115.051
103.241
128.813
134.811
106.801
103.002
105.922
99.7573
103.069
106.121
101.893
103.986
99.4543
122.395
105.738
100.584
126.038
139.613
111.19
115.101
134.478
120.535
122.823
110.686
109.007
120.362
113.908
114.141
109.899
111.746
167.017
157.868
152.744
140.35
153.267
157.221
129.257
145.368
133.68
112.992
123.535
121.095
150.528
153.789
148.832
164.49
182.671
172.554
174.352
191.257
185.112
181.993
169.384
169.101
174.095
168.397
200.387
182.759
172.64
174.793
187.051
177.034
183.143
184.776
165.154
153.863
178.021
174.637
171.888
171.495
179.744
147.378
154.156
151.728
152.56
142.436
161.076
166.378
156.394
155.587
147.308
171.033
163.234
172.427
143.126
154.238
152.371
168.1
161.396
170.188
139.599
140.701
138.415
138.068
123.23
130.344
122.36
148.827
146.094
130.104
136.054
133.084
142.379
139.97
113.971
114.547
107.597
114.814
112.618
106.496
112.408
112.814
119.505
130.454
123.735
122.712
166.307
160.846
168.418
167.58
157.796
162.979
160.593
173.961
173.463
158.759
163.887
158.552
171.351
169.83
136.073
138.811
127.482
158.461
151.814
160.488
141.605
143.567
151.636
164.161
160.997
159.398
146.866
160.361
123.541
133.107
150.01
141.634
139.18
110.768
109.088
115.873
110.007
111.472
108.682
112.412
165.152
144.876
147.929
139.588
141.996
154.112
126.489
132.757
122.398
117.668
118.215
128.035
106.643
109.896
107.166
105.654
109.702
108.796
114.154
136.675
123.581
120.999
119.861
131.771
113.396
106.455
141.723
142.139
154.71
124.431
132.625
119.608
146.906
143.465
132.767
108.427
115.686
118.517
126.6
140.752
132.911
137.493
135.789
149.406
109.514
122.404
100.235
139.055
141.101
148.539
117.028
128.88
124.709
147.468
142.18
140.645
97.9868
92.8828
107.582
87.4655
84.4978
83.5863
107.579
98.159
104.213
119.346
105.869
99.876
129.804
111.302
108.39
120.706
117.013
132.095
140.082
93.9064
93.3531
92.3038
89.768
86.3425
94.1545
91.7995
116.709
132.43
139.02
135.063
131.643
116.347
111.63
122.229
109.256
117.064
113.084
128.187
107.192
108.195
119.86
114.744
112.1
108.386
115.93
116.653
111.437
114.984
110.486
116.718
113.542
116.28
163.152
153.671
159.791
126.958
141.556
133.209
131.869
137.341
126.485
121.056
120.039
125.917
112.331
116.755
119.319
114.064
135.346
122.321
134.505
163.977
165.079
159.708
166.069
151.715
142.659
130.696
164.911
165.32
149.099
146.304
156.592
150.355
143.661
165.576
159.233
132.287
147.282
140.391
128.502
139.977
138.636
141.247
147.9
165.044
167.194
161.538
159.184
164.796
156.009
153.893
155.403
156.774
149.144
152.548
161.969
158.666
159.657
155.244
159.369
154.418
111.323
113.464
111.5
107.948
111.597
137.859
133.229
134.941
128.323
119.754
138.655
120.144
129.17
134.521
133.002
118.302
125.084
117.798
147.27
112.499
125.854
143.134
145.96
93.8424
114.023
100.866
89.6361
93.9501
152.544
153.099
153.857
139.231
128.045
110.947
119.997
134.525
164.112
133.25
142.882
165.774
163.661
122.531
140.937
131.987
122.288
125.364
176.978
166.465
174.932
167.675
155.007
136.933
144.57
150.435
136.638
133.512
133.689
124.51
114.985
144.22
121.559
131.751
139.903
136.28
108.634
108.418
107.103
106.737
114.077
123.964
116.638
113.503
163.415
167.19
164.123
169.003
177.029
167.463
155.63
164.82
174.952
179.143
149.079
172.037
161.908
148.036
151.521
182.33
166.861
173.83
