# vtk DataFile Version 4.2
vtk output
ASCII
DATASET POLYDATA
POINTS 642 double
-254.715 443.811 52.4355
255.622 445.902 52.2716
-256.426 -385.313 53.4111
258.252 -387.82 53.5004
0.137994 -233.179 479.509
0.111792 280.929 461.992
0.165197 -218.874 -350.056
0.0903403 290.44 -365.484
408.93 31.4992 -200.295
406.694 29.7733 306.673
-405.222 31.4841 -198.194
-402.905 29.7154 304.556
-380.672 267.19 196.982
-238.777 177.572 442.152
-142.566 404.694 283.739
143.178 406.125 284.712
0.133244 520.897 52.1548
153.334 433.262 -194.582
-152.418 431.758 -193.657
-244.032 181.948 -342.42
-392 273.918 -96.3046
-463.472 31.2379 53.102
240.145 178.334 444.015
378.989 265.996 196.883
-245.717 -123.05 452.557
0.175992 30.0344 548.377
-386.933 -210.083 -94.0098
-391.494 -212.887 206.065
0.157926 31.5401 -437.672
-239.688 -116.08 -336.215
394.026 275.092 -97.2432
245.077 182.546 -343.736
395.992 -215.413 207.263
247.117 -123.681 454.204
155.356 -376.414 306.123
-154.828 -375.401 305.38
0.0804611 -457.625 53.559
-150.723 -364.603 -189.477
151.538 -365.883 -190.298
240.814 -116.728 -337.543
390.893 -212.791 -95.4891
468.04 30.3805 53.742
-332.052 367.392 128.917
-274.749 352.036 249.697
-206.679 442.578 175.339
-334.315 106.493 386.059
-323.567 229.408 331.913
-403.71 151.416 258.791
-75.347 356.147 385.923
-199.776 306.543 379.91
-124.1 237.354 468.201
-78.1243 486.667 176.602
-133.198 502.115 52.1753
75.7324 356.494 386.268
0.120477 424.625 297.245
134.076 503.659 52.229
78.6244 487.374 176.702
207.331 444.201 175.568
-80.8176 503.298 -76.836
-212.742 455.914 -74.5659
214.508 458.754 -75.3304
81.198 504.14 -77.0656
-79.2394 374.279 -293.15
0.115583 452.913 -207.069
79.5781 374.771 -293.619
-287.345 368.264 -154.303
-337.698 373.177 -24.9801
-127.547 244.159 -370.314
-207.825 319.573 -283.889
-415.997 157.713 -155.548
-334.538 238.04 -231.97
-339.038 108.827 -282.903
-408.547 284.554 52.4842
-449.951 33.3444 -75.9222
-457.446 158.403 -25.2217
-447.676 157.594 128.615
-448.118 29.7554 183.402
273.537 350.991 249.277
332.816 368.25 129.056
124.74 237.896 469.313
200.881 307.669 381.236
406.853 152.297 260.076
325.681 230.612 333.583
336.597 106.917 388.025
-127.006 108.952 517.193
0.167253 162.329 522.558
-339.315 -48.7906 390.664
-254.171 29.8061 466.448
0.0390664 -104.932 529.511
-128.309 -49.9214 521.104
-129.692 -187.075 484.827
-443.515 -94.2779 131.556
-412.99 -96.4882 263.735
-405.643 -92.9898 -151.515
-446.408 -94.8407 -23.1921
-333.498 -308.21 132.949
-405.971 -222.418 53.3041
-336.055 -310.845 -24.1398
-255.997 31.3909 -361.228
-336.224 -45.127 -280.197
0.126869 165.29 -420.236
-128.922 111.145 -414.162
-124.667 -176.086 -360.013
-127.878 -47.7096 -410.133
0.0920367 -100.568 -413.212
208.908 320.827 -285.255
127.977 244.626 -371.159
338.423 374.102 -25.4664
288.833 370.138 -155.373
341.284 109.119 -284.68
336.261 239.152 -233.529
416.35 157.659 -156.158
336.094 -310.404 133.539
292.261 -312.704 266.088
215.972 -399.002 185.016
341.278 -49.1654 392.354
340.107 -180.469 345.257
417.496 -97.5706 265.693
81.282 -319.769 408.481
213.158 -265.156 400.115
130.32 -188.024 486.33
81.44 -444.24 186.992
134.763 -442.486 53.3113
-80.9615 -319.166 407.858
0.104686 -395.501 318.226
-134.033 -441.148 53.35
-81.1874 -443.615 186.876
-214.436 -396.622 184.579
80.65 -436.721 -74.9363
213.66 -394.49 -73.9491
-212.331 -392.443 -73.3202
-80.3067 -436.291 -74.8171
78.3196 -305.606 -284.632
0.105744 -383.044 -201.284
-77.9515 -305.305 -284.34
286.955 -306.439 -153.183
339.111 -313.508 -24.7657
125.111 -176.638 -360.75
205.438 -254.787 -278.029
408.519 -93.2512 -152.308
331.03 -174.948 -228.165
338.545 -45.6101 -282.06
410.203 -225.144 53.3056
455.197 32.4078 -77.6192
453.276 -96.4768 -23.9398
448.431 -95.356 132.016
453.594 29.923 184.85
128.956 -49.9897 522.807
255.854 29.9743 468.824
127.722 109.205 518.832
-291.009 -311.401 265.613
-212.126 -263.956 398.686
-338.169 -179.639 343.915
-204.15 -253.471 -276.481
-284.702 -304.258 -151.751
-328.338 -173.095 -226.04
257.271 31.3789 -362.822
128.218 -47.8089 -410.893
129.268 111.263 -415.076
441.245 154.01 128.331
455.585 158.573 -25.4976
409.467 285.146 52.4818
-296.689 409.032 91.353
-272.941 410.038 153.513
-232.855 447.487 115.138
-332.015 313.727 225.799
-307.036 364.372 191.455
-360.252 319.771 164.242
-176.588 429.32 230.432
-244.151 401.969 213.966
-210.409 381.436 268.163
-372.366 68.5085 348.12
-374.307 130.428 325.392
-407.306 91.7451 283.771
-285.212 205.78 390.759
-332.262 170.014 362.088
-289.475 143.091 417.623
-392.383 209.754 227.762
-367.43 192.276 297.809
-353.604 248.989 265.962
-38.2412 321.664 427.217
-100.776 300.836 431.729
-62.4799 261.401 469.128
-173.081 359.605 337.068
-139.174 334.591 386.235
-110.353 383.492 339.342
-183.269 209.224 459.137
-164.184 274.761 427.481
-221.797 245.29 415.419
-301.911 293.625 294.037
-265.368 271.302 359.968
-239.691 331.588 318.707
-172.408 477.532 115.284
-195.593 476.764 52.2273
-112.659 451.798 231.828
-143.585 469.119 177.326
-67.6448 516.869 52.1874
-106.332 499.754 115.984
-40.2139 510.125 115.913
38.5042 321.805 427.415
0.102294 360.899 390.885
72.6302 420.147 294.332
38.0777 394.31 345.986
110.936 384.287 339.8
-37.7831 394.087 345.884
-72.0615 419.477 293.847
197.015 479.5 52.2109
173.523 479.819 115.573
233.67 449.409 115.278
40.546 510.61 115.997
106.984 500.912 116.186
68.012 517.519 52.2124
176.89 430.259 230.786
144.381 470.782 177.677
113.248 452.651 232.234
-38.9465 461.795 238.665
39.1387 461.463 238.516
0.109442 491.581 177.885
-175.583 486.21 -11.9539
-236.127 454.071 -11.2997
-40.9211 519.735 -12.7667
-108.461 508.899 -12.7143
-184.533 448.134 -135.814
-148.654 484.932 -77.3558
-118.334 473.274 -137.741
237.815 457.094 -11.8327
176.931 488.516 -12.2114
118.928 474.443 -138.257
149.573 486.541 -77.7804
185.82 450.19 -136.715
109.056 510.103 -12.8511
41.2045 520.22 -12.8295
-39.9221 335.287 -333.204
0.0911644 378.943 -298.047
40.1326 335.468 -333.43
-77.5845 448.194 -204.143
-40.2274 417.901 -253.428
-117.029 406.85 -246.415
117.624 407.822 -247.148
40.4667 418.141 -253.6
77.9649 448.917 -204.563
0.122972 509.082 -78.4837
41.2264 485.09 -145.004
-40.9451 484.599 -144.79
-278.705 418.542 -50.6925
-299.284 412.418 13.3863
-222.591 404.166 -176.348
-252.458 415.522 -116.264
-368.431 326.252 -61.7256
-315.807 374.039 -91.0045
-344.351 324.694 -127.417
-64.4666 269.517 -371.841
-104.627 312.714 -336.74
-228.253 253.038 -317.211
-169.545 284.498 -330.98
-187.851 214.798 -360.552
-145.427 350.426 -292.205
-182.247 379.617 -242.534
-412.433 94.781 -177.916
-380.433 134.161 -221.052
-375.97 70.2224 -243.177
-368.189 258.748 -167.057
-379.976 199.747 -196.568
-408.089 216.951 -127.999
-294.762 146.369 -316.302
-339.082 174.634 -259.761
-292.156 211.707 -290.483
-251.079 348.222 -222.695
-275.129 281.95 -262.001
-315.419 306.793 -196.823
-339.674 375.236 52.524
-406.382 283.144 -22.4579
-377.671 331.72 13.5366
-374.388 329.151 91.2617
-399.723 279.156 126.445
-432.78 32.6292 -139.005
-439.544 95.737 -117.169
-466.923 97.5443 12.4814
-459.018 97.4796 -51.4015
-458.181 33.2016 -10.9794
-441.252 159.405 -91.462
-429.874 217.448 -61.9551
-432.135 91.465 223.72
-430.381 29.7179 245.563
-420.346 213.999 164.12
-426.023 154.491 193.197
-459.194 29.5874 118.609
-446.455 93.0065 156.56
-454.958 95.0038 90.1565
-438.841 223.508 13.1817
-459.397 160.224 51.6765
-435.028 221.988 91.5007
273.525 411.167 153.656
297.385 410.242 91.4108
210.451 382.359 269.012
244.326 402.962 213.9
360.777 320.631 163.805
307.475 365.274 191.03
330.697 312.454 225.267
62.8405 261.624 469.582
101.303 301.335 432.447
223.085 246.323 417.064
165.059 275.616 428.762
184.248 209.949 460.73
139.89 335.399 387.12
173.849 360.688 338.048
410.787 92.0793 285.47
377.113 131.084 327.169
375.318 68.6482 350.134
355.584 249.336 267.863
370.053 193.309 299.304
395.2 209.943 230.375
291.267 143.751 419.579
334.527 170.919 363.932
286.998 206.823 392.59
240.696 332.573 320.336
266.971 272.565 361.566
303.411 294.273 296.022
-63.1049 202.493 501.065
0.136588 223.98 496.251
-185.535 145.111 484.624
-127.027 175.001 497.095
0.182614 97.1911 540.25
-64.1186 136.61 525.131
-64.5267 70.3146 538.967
-373.804 -9.71926 349.428
-340.415 29.6484 391.887
-253.03 -46.9706 464.234
-298.869 -9.90537 431.498
-295.685 -86.8038 424.886
-297.492 69 429.982
-249.796 105.164 459.349
-0.0231435 -171.06 508.949
-65.3859 -148.601 513.057
-65.9162 -213.023 487.56
-64.9358 -10.3762 542.01
-65.1286 -78.3014 530.734
0.172096 -37.4954 544.489
-190.361 -157.115 473.616
-130.371 -119.623 506.72
-189.306 -88.2715 491.946
-193.343 69.9402 497.877
-194.475 -10.3608 499.84
-129.585 30.0791 526.614
-435.221 -32.9301 225.2
-410.841 -33.6628 285.855
-459.503 -32.0233 92.5974
-450.021 -32.2128 158.242
-407.937 -157.002 237.226
-432.288 -97.0597 199.118
-424.41 -155.498 170.786
-408.851 -30.3726 -177.696
-429.625 -30.0225 -114.59
-423.338 -154.666 -60.0101
-430.481 -95.9977 -87.7727
-401.083 -153.634 -124.45
-450.472 -32.2863 -49.1568
-459.513 -32.6296 15.0117
-298.428 -350.911 93.5974
-339.871 -314.855 53.4063
-299.455 -351.885 14.1316
-398.303 -218.091 129.928
-374.408 -268.711 93.1564
-367.991 -265.313 171.529
-365.316 -263.231 -60.4364
-375.458 -269.479 14.4496
-401.594 -219.607 -21.162
-450.722 -95.9673 53.3542
-433.303 -161.197 14.1978
-431.368 -160.379 93.2281
-342.677 31.416 -286.356
-374.506 -7.16744 -242.069
-253.593 107.527 -357.326
-300.686 70.7142 -326.077
-290.967 -81.4988 -311.842
-299.503 -7.70617 -324.606
-251.422 -43.9837 -353.89
0.10227 229.261 -396.409
-64.7119 207.103 -401.2
-65.2063 71.9123 -432.451
-65.2626 139.108 -422.187
0.158611 98.9022 -434.391
-129.825 178.966 -397.133
-189.131 148.321 -384.01
-63.1194 -199.604 -359.112
-63.4818 -140.628 -393.015
0.121194 -161.445 -387.357
-186.672 -83.9538 -378.582
-127.742 -113.621 -390.097
-183.907 -147.996 -352.429
0.123293 -35.524 -430.002
-64.5649 -75.1371 -416.566
-64.8783 -8.82454 -429.569
-195.524 71.6153 -393.846
-130.324 31.4 -418.988
[...]
POINT_DATA 642
SCALARS Mean_Curvature double 1
LOOKUP_TABLE default
0.00464607
0.00457508
0.00503719
0.00498581
0.0034198
0.00504067
0.00104867
0.00463486
0.00503907
0.00483674
0.00494409
0.00457934
0.00416246
0.00417491
0.000787888
0.00125393
0.00366856
0.0043799
0.00438387
0.00422596
0.00401316
0.00324723
0.00417605
0.00267156
0.00385967
0.00483565
0.0040717
0.00453833
0.0042922
0.00457513
0.00418223
0.00415659
0.00530314
0.00399267
0.00439192
0.00430088
0.00318781
0.0042899
0.00431337
0.00450797
0.00470938
0.00404489
0.00430185
0.00243618
0.00416645
0.00421271
0.00415006
0.00420054
0.00416204
0.00419481
0.00414201
0.00452384
0.00455232
0.00406886
0.00164884
0.00447121
0.00451563
0.00429287
0.00453993
0.0042823
0.00460886
0.0044995
0.00410321
0.00365441
0.00407023
0.00411639
0.00461377
0.00388015
0.00386028
0.00504442
0.00409037
0.00427421
0.00428873
0.00317618
0.00581983
0.00598434
0.00396607
0.000940373
0.00434405
0.00416017
0.00425483
0.00407586
0.00423762
0.00410796
0.00413805
0.00426006
0.00464854
0.00402969
0.00323998
0.0034163
0.00446766
0.00192357
0.0043858
0.00283558
0.00408283
0.000854762
0.00427685
0.00434424
0.00443753
0.00434527
0.00404279
0.00430036
0.00347253
0.00436247
0.0040552
0.00389354
0.00387103
0.0041024
0.00401374
0.0040734
0.00423212
0.00383905
0.000328049
0.00387928
0.00533296
0.0037955
0.00423141
0.00475
0.00434748
0.00431452
0.00508685
0.00616883
0.00447077
0.00433432
0.00301425
0.00440275
0.00622525
0.0050291
0.00421924
0.00433218
0.00432665
0.00444371
0.00417659
0.00325075
0.00439924
0.00425967
0.00431243
0.0033735
0.00450196
0.00219753
0.00455836
0.00431373
0.00470508
0.00488256
0.00599392
0.00216594
0.00466989
0.00365855
0.00423459
0.00420793
0.0046008
0.00426539
0.00467792
0.00445436
0.00427551
0.00417016
0.00440995
0.00428721
0.00421591
0.000254864
0.00488333
0.00435339
0.00427275
0.00427699
0.00401051
0.00346804
0.00470146
0.00442938
0.00475806
0.00514944
0.000485903
0.00422519
0.00422128
0.00421301
0.00419673
0.00421786
0.0041976
0.00149533
0.00420744
0.00295517
0.00419118
0.00415351
0.00412264
0.00429671
0.00425851
0.00449651
0.00417056
0.00420477
0.00417649
0.00333178
0.00418281
0.00399038
0.00407196
0.0039458
0.00423434
0.00436326
0.00453683
0.00456844
0.00433312
0.0041392
0.00439707
0.00164843
0.0044495
0.00442043
0.0045278
0.00147505
0.0043904
0.0044088
0.00405052
0.00439115
0.00450972
0.00443835
0.00450182
0.00462106
0.00426026
0.00428994
0.00380237
0.00349388
0.0047409
0.00393211
0.00464709
0.0048009
0.00423892
0.00456869
0.00432231
0.00440221
0.00481252
0.00424413
0.00443207
0.0042586
0.00473126
0.00467515
0.00414744
0.00393135
0.00410924
0.00441407
0.00408496
0.00429848
0.00427337
0.00401186
0.00440227
0.00373592
0.00420234
0.0041513
0.00395862
0.00438234
0.00391256
0.00384461
0.00401932
0.00404436
0.00420805
0.00377676
0.00411401
0.00371975
0.00394607
0.00411099
0.00411482
0.0039687
0.00307659
0.00308349
0.00417239
0.00408324
0.00495832
0.00394526
0.00427862
0.00334574
0.00363133
0.00394518
0.00397496
0.00418825
0.00433737
0.00460515
0.00449378
0.00434691
0.00422357
0.00506726
0.00368518
0.00608828
0.00502805
0.000120199
0.00510277
0.00385271
0.00458668
0.00422288
0.00480965
0.00185885
0.00389104
0.00163282
-0.000685574
0.00425528
0.00600118
0.00424703
0.00423032
0.00414269
0.000554236
0.00521361
0.00504928
0.00521763
0.00200797
0.00405138
0.00415078
0.00421511
0.00423596
0.00418447
0.0042736
0.00434652
0.00417408
0.00418246
0.0041136
0.0035301
0.00423025
0.00326474
0.00416442
0.00422183
0.004212
0.00434828
0.00425878
0.00400098
0.00418198
0.0042791
0.0041341
0.00410442
0.00441095
0.00418894
0.0043298
0.00311527
0.0039689
0.00423963
0.00323549
0.00388634
0.00418865
0.00418981
0.0037607
0.00414686
0.00486339
0.00484806
0.00334087
0.00451478
0.00496023
0.00366031
0.0036335
0.00412724
0.00378572
0.00432868
0.00404801
0.00363217
0.0039592
0.00294201
0.005742
0.0033255
0.00500426
0.00466086
0.000431883
0.00480373
0.00390617
0.00463006
0.00368592
0.00384717
0.00347501
0.00438847
0.00432296
0.00103586
0.00402027
0.00566159
0.0043503
0.00436399
0.00403344
0.00342155
0.00480805
0.00393497
0.00443365
0.00428944
0.00443076
0.00418146
0.00461374
0.00433299
0.0043538
0.00352781
0.00402299
0.00447704
0.00407487
0.00421344
0.00423305
0.00432039
0.00257109
0.00451427
0.0044203
0.00435969
0.0043388
0.0042529
0.00394914
0.00417844
0.00405339
0.00423296
0.00425597
0.00437771
0.00409205
0.00377361
0.00415495
0.00406086
0.00403465
0.00399052
0.00383179
0.00403316
0.00434008
0.00416066
0.0041653
0.00425804
0.0040057
0.0041868
0.00460963
0.00351958
0.00394416
0.00365419
0.00347811
0.00417576
0.00458458
0.0042051
0.00423138
0.00392801
0.00413909
0.00398681
0.00355212
0.00493288
0.0021577
0.00399022
0.00568324
0.00585139
0.00384476
0.00470039
0.00419109
0.00343837
0.00486404
0.00292092
0.00468321
0.00390228
0.00459992
0.00548094
0.00463452
0.00409694
0.00462504
0.00422939
0.00519727
0.0043127
0.00434082
0.00434205
0.0045178
0.00438572
0.00433387
0.00418273
0.0041879
0.00427936
0.00202106
0.00443248
0.00384485
0.00537651
0.00404026
0.00149128
0.00196361
0.00464213
0.00287247
0.00430756
0.00463657
0.00429435
0.00466889
0.00432414
0.00444875
0.00202958
0.00181418
0.00166873
0.00172535
0.00437685
0.0044034
0.00524885
0.00409905
0.00425487
0.00407831
0.00479962
0.00435397
0.00435417
0.00405893
0.00465795
0.00433573
0.00437152
0.00436565
0.00435885
0.00439262
0.00433151
0.00435477
0.0043352
0.00445024
0.00410676
0.00414669
0.00307999
0.00422399
0.00422318
0.00425172
0.00436363
0.0042692
0.00415805
0.00448294
0.00340794
0.00408445
0.00419969
0.00432808
0.00430928
0.0042591
0.00432747
0.00434437
0.00431428
0.00423949
0.00273373
0.00399358
0.0018094
0.00335148
0.00414703
0.00428749
0.00431645
0.00467014
0.00393758
0.00426813
0.00467551
0.00298819
0.00387161
0.00456644
0.00321894
0.00119346
0.00427453
0.00458627
0.0042643
0.00441473
0.00466886
0.00441311
0.00409303
0.00102431
0.00500814
0.0014023
0.00326068
0.00191199
0.00138156
0.00471834
0.00344101
0.0043012
0.0041902
0.00474411
0.00362315
0.0033021
0.0023594
0.00408997
0.00360699
0.00426257
0.00338017
0.00308529
0.00353387
0.0033415
0.00374529
0.00491168
0.00409478
0.00411095
0.00405249
0.003764
0.00323702
0.0041825
0.00441192
0.00425232
0.0041107
0.00413331
0.00406531
0.00418377
0.00438617
0.00536411
0.00435981
0.00417515
0.0045905
0.00448352
0.00425375
0.00431103
0.00428394
0.00432418
0.00426675
0.00451752
0.00444835
0.0043796
0.00355032
0.00494858
0.00420036
0.0041603
0.00412759
0.00388522
0.00431793
0.00427821
0.00322001
0.00182434
0.00432115
0.00424552
0.00433935
0.00432045
0.00426459
0.00382774
0.00139695
0.00320254
0.00366052
0.00413597
0.00427958
0.00422792
0.00444905
0.00439848
0.00431402
0.00429253
0.00445004
0.00423772
0.00445532
0.0041852
0.00417617
0.0042815
0.00432914
0.0040518
0.00427131
0.00417622
0.00421586
0.00471696
0.00431927
0.00422538
0.0043104
0.00434941
0.00216082
0.00354881
0.00430289
0.00224112
0.00335608
0.00459625
0.00463261
0.00455486
0.00268147
0.0042972
0.00483776
0.00440083
0.00439409
0.00419566
0.0057094
0.0046685
0.00546387
SCALARS CoVolArea double 1
LOOKUP_TABLE default
3686.55
3710.49
3741.05
3776.4
3895.94
3590.87
3703.52
3796.69
3615.24
3622.53
3579.38
3572.54
4587.11
4659.31
4659.51
4659.14
4844.21
4943.26
4914.26
4832.54
4772.34
4613.36
4698.43
4621.2
4892.28
4857.16
4653.22
4735.27
4853.27
4730.59
4787.98
4867.06
4802.21
4933.7
5056.63
5030
4920.09
4790.67
4818.73
4767.85
4720.41
4622.56
4399.93
4824.62
4369.36
4396.17
4775.25
4342.56
4289.87
4752.03
4429.02
4844.51
4552.09
4304.81
4849.14
4577.9
4860.71
4383.48
5156.2
4620.15
4650.43
5175.5
4667.42
5195.4
4681.31
5072.52
4528.06
4637.7
5103.94
4452.1
5023
4511.74
4893.62
4410.06
4773.95
4778.4
4315.79
4886.81
4403.13
4448.01
4771.22
4336.93
4794.22
4447.91
5009.22
4526.37
4515.76
4999.28
4724.35
5134.43
4725.48
4854.6
4424.86
4419.97
4752.99
4601.16
4896.88
4502.67
5004.77
4437.25
4646.82
5086.54
4491.51
5011.66
4508.41
5135.67
4654.19
4566.51
5116.83
4551.13
5062.58
4507.69
4666.01
5205.31
4696.33
4565.5
5149.37
4488.57
4819.9
5272.5
4745.8
5198.72
4659.27
4806.42
5308.97
4634.06
5185.93
4664.59
5086.56
4614.92
4575.45
5071.44
4497.37
5044.77
4483.93
5029.28
4566.36
4507.55
4977.67
4488.41
4958.33
4484.15
4978.82
4416.43
4819.53
4920.64
4342.31
5151.17
5040.88
5033.77
5149.21
5239.44
5087.89
4943.22
4969.63
4909.83
5039.79
5029.97
5104.15
4903.01
4828.62
4877.04
4386.41
4419.62
4392.73
4746.17
4393.02
4306.29
4326.43
4400.48
4817.85
4310.65
4367.72
4228.29
4753.99
4391.41
4363.07
4343.63
4387.4
4755.81
4279.25
4407.99
4340.37
4740.65
4344.8
4284.99
4383.11
4416.88
4762.37
5323.54
5295.59
5325.39
4522.42
4463.05
4769.3
4422.76
4528.4
4534.33
4916.1
4286.36
4334.12
4803.55
4375.31
4293.69
4368.48
4798.49
4484.63
4539.52
4414.96
4924.32
4550.87
4545.51
4340.75
4437.44
4781.53
5369.53
5380.84
5410.72
4641.68
4494.12
5068.82
4670.83
4605.96
4698.08
5101.48
4519.81
4671.45
5128.99
4732.42
4640.8
4698.15
5077.68
4578.11
4728.14
4584.16
5114.69
4748.02
4623.83
4644.86
4755.88
5131.97
5743.72
5765.31
5755.74
4625.54
4445.1
5058.83
4673.49
4483.9
4628.37
4972.24
4570.55
4692.75
5027.17
4686.02
4570.9
4702.69
5068
4358.39
4544.9
4383.78
4946.41
4558.2
4441.66
4506.19
4593.1
4993.44
5647.32
5623.56
5595.84
4516.16
4895.2
4530.82
4471.86
4759.84
4303.62
4429.54
4729.74
4388.83
4358.64
4449.29
4873.33
4357.04
4238.74
4718.79
4424.4
4317.46
4444.31
4813.02
5390.88
5282.71
5302.91
4431.16
4418.77
4845.67
4431.88
4328.26
4423.07
4803.92
4350.98
4424.51
4796.46
4440.37
4411.07
4363.86
4752.75
4292.58
4425.73
4362.64
4772.77
4401.1
4330.96
4409.47
4440.59
4796.18
5352.13
5314.63
5355.81
4527.24
4383.95
4891.22
4540.61
4532.76
4594.13
5000.25
4372.48
4504.64
5010.4
4584.92
4541
4517.58
4880.23
4665.25
4769.29
4671.79
5050.11
4749.67
4619.88
4647.82
4752.3
5075.1
5553.63
5625.7
5620.1
4402.19
4332.1
4726.13
4400.47
4388.09
4445.48
4834.89
4314.66
4477.35
4742.71
4421.2
4334.76
4448.27
4725.17
4525.17
4578.17
4462.94
4910.58
4580.51
4511.13
4423.82
4518.78
4806.1
5314.56
5338.15
5413.23
4506.16
4323.44
4977.14
4570.31
4423.55
4529.11
4894.05
4576.21
4691.16
5031.32
4686.62
4583.42
4679.41
5015.64
4436.09
4537.71
4432.35
4898.32
4545.28
4442.58
4529.22
4585.36
5001.16
5606.88
5614.4
5565.23
4709.36
4578.59
5098.34
4726.37
4595.67
4709.54
5058.28
4483.29
4658.02
5012.18
4664.41
4516.56
4708.15
5095.33
4414.93
4582.71
4396.05
5031.01
4634.08
4545.5
4467.33
4601.52
4981.59
5690.14
5644.65
5663.74
4579.27
4722.97
4603.21
5064.02
4706.8
4566.37
4698.63
4753.23
5206.04
4430.92
4584.59
4399.75
5101.37
4662.92
4581.78
4459.23
4624.19
5041.49
4720.47
4835.15
4681.24
5233.06
4866.74
4769.23
4679.25
4827.5
5159.44
5765.94
5785.84
5825.67
4757.07
4572.37
5182.16
4776.43
4617.77
4769.36
5136.36
4715.92
4871.32
5230.64
4874.29
4752.63
4879.97
5242.47
4539.16
4731.33
4569.65
5131.13
4749.37
4603.23
4661.68
4749.89
5158.93
5814.49
5808.36
5762.45
4658.85
4528.13
5038.37
4664.16
4558.11
4667.4
5014.06
4482.87
4627.57
4991.78
4641.21
4524.47
4644.18
5030.5
4427.31
4548.02
4422.47
4984.98
4591.09
4486.42
4466.7
4584.04
4969.56
5646.94
5622.29
5631.17
4643.39
4516.91
4988.46
4648.47
4479.85
4625.17
4930.66
4440.78
4539.41
4961.52
4564.82
4468.66
4553.33
4943.48
4361.42
4517.58
4373.96
4879.67
4539.2
4410.61
4465.3
4556.99
4964.2
5534.48
5529.3
5506.55
4645.6
4889.06
4576.49
4640.09
4982.71
4331.43
4497.22
4779.38
4494.25
4394.61
4480.93
4826.11
4468.02
4303.88
4912.78
4516.03
4329.91
4474.09
4780.37
5424.76
5363.72
5497.37
4787.09
5110.96
4775.64
4760.59
5057.78
4552.9
4922.07
4562.51
4626.51
5057.02
4538.48
5013.16
4605.19
4561.99
4925.44
5661.63
5588.17
5641.47
4678.57
5164.59
4711.42
4655.51
4997.01
4821.88
5121.09
4803.12
4843.28
5203.36
4528.41
4966.86
4564.83
4615.7
5053.15
5779.92
5735.56
5698.5
4525.7
4908.6
4530.85
4543.45
4927.18
4590.29
4874.09
4563.08
4600.28
4944.68
4452.65
4920.42
4506.66
4464.15
4821.81
5481.96
5452.25
5484.4
4553.02
4930.69
4570.59
4610.37
5013.64
4546.47
5007.23
4594.06
4564.73
4927.26
4698.95
5045.11
4696.91
4693.2
5036.52
5595.51
5632.6
5636.93
4358.83
4811.34
4434.16
4431.77
4803.93
4469.61
4878.7
4498.57
4442.67
4774.05
4549.34
4773.63
4473.63
4562.36
4912.76
5359.35
5388.67
5370.57
SCALARS SignedDistance double 1
LOOKUP_TABLE default
297.852
291.92
266.164
250.368
216.233
318.662
328.091
241.167
311.795
316.536
333.659
336.939
376.647
316.466
380.66
373.907
287.662
223.708
235.046
262.295
283.688
377.069
304.676
371.604
257.161
244.733
316.434
313.501
254.975
313.356
277.821
251.755
291.457
244.015
199.816
207.242
263.626
268.164
261.488
304.296
298.934
356.801
334.104
380.619
347.561
323.707
356.168
366.267
352.279
351.626
315.152
342.042
289.854
348.52
373.859
282
339.442
343.234
232.844
254.365
240.876
228.628
234.35
227.624
230.556
256.359
279.328
246.76
253.782
319.961
279.43
292.367
321.655
376.165
342.181
387.607
370.271
372.688
330.141
308.592
342.196
348.516
343.222
308.924
280.227
281.269
299.891
287.451
236.897
253.671
223.239
354.527
330.341
353.445
353.423
302.561
321.517
284.241
275.572
318.468
241.2
245.854
318.576
276.315
289.093
243.499
241.478
274.159
245.661
273.565
269.409
308.159
283.569
232.286
245.749
281.425
250.312
306.699
187.867
203.259
219.481
241.043
247.561
191.522
208.794
252.444
242.792
255.299
250.223
242.273
254.929
250.111
298.082
279.986
297.809
267.531
263.585
314.581
296.706
337.492
316.978
303.064
302.951
356.475
338.265
338.296
347.094
244.019
274.468
271.971
251.105
215.464
272.086
305.389
284.01
328.488
264.115
272.169
240.697
367.905
335.555
319.013
314.963
339.116
322.044
378.3
358.668
354.742
371.813
364.748
381.507
329.745
344.768
351.317
335.996
339.536
319.27
381.965
360.902
377.193
335.794
333.964
316.622
368.734
351.948
368.312
315.088
333.271
333.694
375.029
353.571
372.143
321.349
295.971
368.765
347.74
284.62
316.302
313.337
334.075
348.729
373.113
362.693
362.386
364.601
376.681
287.184
314.103
317.03
314.163
311.164
282.447
367.127
341.874
364.515
365.301
364.243
340.957
269.144
274.908
256.785
259.433
241.078
241.651
228.017
266.08
257.765
219.238
230.285
227.325
252.699
257.868
236.67
231.376
235.022
224.431
228.333
233.639
226.216
228.224
220.761
236.328
224.286
222.88
266.015
286.536
247.703
253.712
277.432
263.941
267.761
243.541
242.063
261.327
251.1
252.62
243.317
245.349
332.132
312.113
311.412
279.306
296.809
296.105
275.73
293.375
277.004
254.121
265.074
264.355
304.814
297.791
298.847
326.329
348.686
356.073
350.283
377.172
361.023
378.757
327.874
305.195
368.008
353.599
377.834
384.699
374.191
380.745
383.481
324.46
363.213
350.565
335.114
310.365
373.761
360.942
351.25
354.73
371.655
313.917
329.074
323.027
324.968
305.432
345
360.172
332.322
328.877
312.596
362.812
346.315
364.72
306.014
325.589
323.354
361.349
342.121
362.597
298.109
299.828
297.923
297.122
262.707
279.274
262.074
318.878
311.217
276.966
293.406
276.75
304.904
300.844
238.179
239.726
215.565
244.585
243.192
231.495
239.267
244.558
255.864
282.426
268.998
263.497
353.938
335.275
365.231
362.234
324.726
351.013
346.247
351.328
366.632
336.123
351.986
335.438
368.432
367.185
283.347
290.321
272.865
332.108
311.796
309.589
299.519
302.014
315.386
356.129
337.231
346.257
302.528
324.903
265.13
281.323
314.521
295.986
292.966
244.355
243.261
248.424
242.434
241.301
244.24
250.228
322.478
302.453
309.6
293.265
296.778
315.045
270.591
281.372
264.211
256.891
257.111
272.864
237.192
241.349
234.635
235.401
244.763
242.417
250.575
281.034
259.418
258.482
255.9
273.651
241.64
235.066
290.324
291.306
307.954
264.321
277.183
261.607
290.744
287.239
269.956
243.401
253.56
254.061
265.48
267.058
261.287
258.232
260.478
290.426
216.739
233.887
212.263
298.364
291.596
311.415
244.188
265.553
261.83
299.74
278.744
266.746
200.793
196.539
214.935
195.563
190.817
188.847
230.339
205.951
221.331
237.747
224.368
212.898
257.229
245.615
213.532
239.963
255.66
259.585
269.9
198.334
200.263
200.032
194.001
195.044
196.547
197.684
256.649
264.703
273.547
267.028
261.734
255.488
228.698
245.197
218.429
217.476
214.81
250.931
239.334
241.967
256.071
245.957
249.277
242.039
251.702
256.716
248.727
255.508
248.879
259.162
247.669
254.37
319.527
308.166
317.657
270.641
289.701
277.9
281.151
287.356
270.307
259.642
261.764
264.507
249.141
253.896
260.975
252.341
279.189
262.714
280.281
320.947
315.288
317.116
314.719
308.65
294.158
277.022
330.839
326.48
306.054
306.018
326.705
318.417
302.44
323.981
320.854
280.036
303.74
290.139
269.791
297.38
281.277
291.103
312.152
331.844
346.943
348.2
348.567
357.084
337.122
316.232
329.824
331.24
322.383
327.047
354.507
343.306
342.571
314.488
341.797
327.36
238.536
248.543
240.642
236.397
237.529
294.745
288.5
291.086
276.948
262.304
294.989
256.498
275.09
289.803
287.703
256.651
271.351
253.566
280.403
225.318
250.461
278.076
281.966
202.111
233.377
214.944
199.51
206.075
312.414
289.669
302.59
286.527
262.941
227.747
240.682
256.919
316.819
285.419
299.224
319.977
324.544
266.754
298.953
281.835
267.586
273.286
343.94
331.372
337.839
341.659
320.979
292.839
305.513
314.987
284.921
282.644
282.254
265.974
253.07
300.492
261.905
279.373
292.534
286.521
240.88
242.96
239.751
238.308
243.951
265.491
252.852
248.984
346.15
361.975
359.747
363.327
372.647
331.029
305.721
319.419
352.534
364.853
300.223
346.024
322.721
294.717
294.819
357.314
324.01
349.555
