# vtk DataFile Version 4.2
vtk output
ASCII
DATASET POLYDATA
POINTS 642 double
-119.924 231.203 -20.3906
118.09 240.122 -25.5066
-108.308 -205.542 37.7692
128.808 -212.686 38.083
1.13987 -177.246 291.226
4.01163 80.6763 260.039
2.82655 -57.8356 -86.6159
3.15836 189.498 -173.877
144.014 69.8767 -120.441
145.526 -3.25957 203.405
-117.781 67.4637 -115.786
-119.18 1.64788 203.98
-141.987 147.211 36.3704
-78.9802 48.2887 254.332
-24.1514 126.59 105.927
38.3102 126.227 111.749
0.602676 276.881 -43.1896
81.5329 288.518 -92.7108
-66.5968 281.084 -89.9274
-101.19 113.403 -176.328
-170.54 189.628 -37.974
-131.009 21.5367 20.6616
91.4438 52.7263 261.005
108.847 114.198 43.7048
-104.945 -100.229 276.406
8.52079 -9.19541 333.122
-130.132 -130.667 -3.38259
-115.133 -136.466 192.952
5.65321 67.6007 -211.026
-80.3471 19.5005 -156.316
160.351 191.461 -51.5795
115.27 115.338 -179.564
141.753 -137.44 198.95
123.346 -101.151 279.105
92.4515 -225.73 238.592
-80.6881 -222.444 237.631
-0.0812133 -219.085 33.9201
-76.8939 -197.187 -42.6988
92.5765 -198.443 -43.3153
92.6765 17.7961 -158.404
148.621 -140.812 -5.06915
148.277 0.421028 59.235
-140.304 192.166 -9.27802
-106.31 113.95 50.2431
-102.273 217.51 -9.99958
-105.957 24.7249 232.431
-93.2342 53.2025 202.311
-104.479 41.6942 175.724
-13.5539 97.4779 221.267
-54.4096 76.7012 224.87
-39.0639 68.4073 264.536
-23.1151 239.925 -0.250103
-46.4966 274.208 -37.6031
27.5501 100.252 220.344
6.27782 123.251 117.236
63.875 278.726 -38.2076
37.5546 239.462 0.610699
94.8361 222.092 -11.1051
-41.7028 299.683 -63.2101
-86.0755 258.679 -56.5587
94.2484 282.696 -63.7521
56.0074 300.421 -63.6036
-36.9122 240.32 -142.662
2.01107 284.588 -92.6717
46.2234 242.693 -145.135
-142.469 224.732 -66.3438
-155.766 211.391 -33.9045
-62.5756 148.982 -185.052
-92.4906 201.089 -128.484
-149.794 184.583 -56.7476
-141.039 176.803 -87.0634
-118.749 84.8838 -142.04
-171.83 185.34 -14.3945
-115.134 91.6259 -6.8941
-160.406 185.977 -34.9373
-139.421 164.87 42.9606
-120.883 -4.21553 137.415
79.8563 126.915 73.9504
135.331 210.507 -15.8251
53.134 69.3176 267.247
65.4697 82.3763 228.199
132.39 28.1007 181.364
106.022 55.5333 212.565
121.903 25.0206 237.249
-40.7609 30.0745 298.664
5.26822 46.276 300.609
-114.164 -52.5579 242.504
-93.2763 2.34303 273.158
5.06611 -44.1818 327.058
-44.6077 -33.8289 310.676
-71.3046 -142.77 298.213
-132.957 -50.4802 95.8531
-118.521 -72.5273 209.138
-108.306 -53.6672 -45.8604
-132.386 -73.9765 19.1759
-132.025 -150.82 116.468
-131.219 -134.706 28.2768
-125.067 -172.412 9.96926
-100.655 62.7692 -176.905
-108.035 43.1812 -132.958
4.58237 103.131 -216.233
-63.7254 89.3636 -206.468
-61.9642 -24.1974 -145.059
-57.2279 36.536 -192.443
2.55001 21.8127 -188.06
102.87 208.76 -136.892
70.876 152.432 -185.55
153.711 219.941 -35.0343
147.249 233.576 -73.9276
144.354 82.2277 -145.004
149.77 170.6 -98.1611
154.573 141.158 -76.1885
157.65 -150.865 115.025
134.195 -184.733 217.433
102.775 -209.454 181.093
137.511 -52.5787 245.693
144.497 -128.273 241.041
144.987 -77.4121 208.518
62.433 -209.955 291.131
115.849 -178.972 278.647
80.6673 -147.931 298.333
60.5053 -226.317 198.582
91.196 -227.219 38.7829
-54.449 -208.432 289.047
1.58722 -221.315 236.266
-76.3313 -226.595 39.7718
-54.7161 -224.902 195.634
-86.164 -208.95 176.07
65.5511 -226.902 -10.6789
118.384 -220.213 -10.7472
-100.724 -214.347 -8.30774
-58.3534 -226.709 -10.6807
64.8846 -159.603 -60.3995
0.346581 -190.343 -39.4831
-56.855 -158.29 -60.7185
133.261 -180.74 -29.4113
144.497 -186.108 7.74804
71.0358 -22.1723 -144.995
91.6768 -148.962 -61.8471
131.703 -40.9007 -45.6449
130.723 -102.011 -40.4446
131.85 45.2262 -134.26
150.548 -140.152 28.434
124.81 62.4032 -43.4732
148.56 -87.9404 22.2461
149.298 -53.0702 100.635
146.065 2.2618 152.033
51.9717 -26.5711 321.999
105.891 0.617229 279.429
51.4676 28.4314 304.407
-113.266 -177.842 216.748
-103.872 -174.638 273.624
-117.736 -131.052 238.991
-77.8792 -142.727 -63.3904
-113.356 -172.223 -26.3779
-121.363 -94.1381 -39.5166
117.977 63.3049 -179.568
64.8787 34.8498 -193.766
66.9216 88.9619 -210.277
147.268 77.6672 50.8656
158.502 174.328 -31.2341
153.843 191.379 -32.9274
-131.12 213.908 -13.0032
-123.04 208.505 -9.01657
-112.382 224.893 -13.8339
-137.745 134.007 57.1549
-133.207 184.413 -3.46691
-153.423 167.778 6.62997
-69.0655 197.2 7.65713
-110.915 196.681 -3.59323
-60.5036 123.068 79.3834
-114.18 12.5751 217.587
-108.524 27.6674 209.283
-114.411 14.5965 197.154
-88.9797 50.5662 231.48
-99.6525 40.6294 221.417
-94.9168 36.5243 244.744
-121.021 98.8911 111.778
-98.6506 52.1109 186.392
-114.752 84.2542 136.252
-4.95039 90.39 240.969
-26.0815 82.6514 244.152
-13.6824 75.4499 263.504
-40.6382 91.6711 202.085
-34.0941 88.3032 224.298
-20.5865 101.379 202.228
-59.3276 59.394 261.347
-48.5331 73.2845 245.353
-67.099 63.9088 241.824
-83.0662 73.5615 154.377
-76.9974 64.9516 215.084
-65.0742 79.2649 184.383
-72.2559 239.483 -22.9957
-84.147 249.373 -35.515
-22.9167 207.727 25.2453
-50.2494 229.258 -7.0649
-35.4878 279.999 -38.2959
-36.508 260.721 -24.6463
-22.7289 260.467 -19.7945
15.2654 91.112 240.131
5.79859 99.8404 222.165
30.6614 122.189 119.407
17.3728 104.011 203.988
35.9435 103.916 201.187
-3.14374 104.087 204.353
-11.0595 124.219 115.094
82.0704 263.097 -36.3092
74.6092 253.249 -26.2296
110.998 234.778 -21.5845
32.0056 259.872 -20.3266
54.6284 262.994 -25.4594
49.3839 281.696 -39.1734
63.279 197.312 21.6332
56.2968 237.322 -6.11049
33.9519 206.663 29.0306
-4.59356 205.253 35.8459
14.4991 203.483 37.5402
1.8701 237.684 8.84348
-63.2563 275.185 -50.7269
-111.161 246.679 -36.4518
-28.0432 294.078 -54.6544
-43.2543 292.854 -55.574
-75.0481 279.046 -71.3833
-54.7504 294.194 -65.2012
-53.624 299.195 -71.1054
104.53 260.224 -52.7626
77.9928 287.486 -53.5203
70.6582 303.058 -71.944
74.9183 298.179 -64.567
90.224 291.979 -71.5651
61.315 293.991 -55.0941
36.0808 292.883 -56.8094
-18.0575 218.394 -161.095
2.92506 243.174 -148.726
24.772 219.677 -162.412
-42.9752 290.637 -96.7262
-22.9189 264.622 -119.182
-51.2031 263.154 -112.655
64.9202 266.304 -113.506
30.0095 264.574 -119.957
54.2897 291.727 -96.6826
2.25028 292.677 -62.9763
34.7072 301.315 -73.0517
-27.1779 303.494 -73.5129
-134.46 235.558 -38.9806
-138.453 223.952 -28.8382
-105.49 252.531 -77.1584
-121.454 245.932 -56.7076
-169.707 195.383 -34.1738
-152.752 219.84 -43.3501
-163.398 202.643 -49.6302
-33.8337 170.626 -178.955
-48.1291 202.549 -163.903
-95.8189 156.517 -153.663
-73.1 178.632 -162.41
-85.316 129.383 -185.758
-62.3351 225.654 -141.893
-77.7339 239.952 -107.767
-121.841 106.629 -92.9738
-123.947 122.964 -99.739
-119.466 75.8501 -128.703
-161.813 186.13 -60.5504
-153.85 183.754 -78.491
-169.413 188.574 -41.1946
-112.134 98.5453 -160.568
-120.352 133.662 -112.151
-113.214 138.941 -130.875
-126.047 219.739 -96.3999
-126.865 185.219 -108.214
-149.047 198.611 -78.1645
-148.615 204.252 -19.8647
-174.2 191.367 -32.0135
-171.275 189.831 -25.6241
-160.494 179.755 -8.80303
-160.701 170.732 2.44689
-116.889 73.5062 -92.6156
-135.447 152.353 -39.6105
-157.733 129.358 -25.3098
-160.552 141.559 -24.9345
-144.402 58.0684 11.5396
-169.417 188.57 -33.1582
-173.632 191.958 -30.3008
-113.459 18.9854 170.266
-119.16 2.16445 188.024
-145.963 148.725 28.1079
-103.832 83.5096 107.378
-127.117 -4.94444 80.0871
-116.765 36.0099 100.442
-135.928 70.4297 7.7211
-179.855 191.769 -27.291
-174.537 172.592 -37.2979
-170.398 185.605 -13.3846
124.499 215.436 -11.8047
133.517 221.334 -16.4105
57.7857 127.843 97.1455
103.848 194.317 2.9099
132.668 193.921 -11.8742
122.482 198.973 -7.60873
95.255 124.438 53.0311
24.7921 75.847 264.095
39.7539 85.1522 244.434
78.9628 67.2216 247.778
61.6976 75.7081 248.279
72.6042 62.572 266.706
47.4435 93.4465 224.07
51.5649 99.021 204.127
141.666 11.2909 193.207
130.482 25.8922 209.876
137.202 8.12449 219.097
106.644 65.4106 167.216
120.518 43.8519 196.598
116.425 56.5562 149.489
108.048 41.0376 251.665
113.872 41.8479 228.085
101.023 53.8948 239.793
73.9019 87.6877 196.019
87.1797 69.9171 222.715
92.4897 76.783 181.55
-15.0591 59.9806 282.839
4.0962 67.3422 280.822
-63.505 43.1392 276.147
-42.4669 52.4006 282.247
6.95102 18.2653 319.298
-15.3938 36.2976 302.775
-12.9636 10.8812 320.386
-118.581 -20.6458 223.458
-112.141 0.569487 237.048
-97.0258 -47.0445 272.54
-105.751 -22.4892 256.485
-111.894 -78.3628 259.364
-100.997 16.589 253.221
-88.4928 27.7011 264.268
-1.56967 -115.656 295.999
-41.2932 -100.609 300.304
-49.1386 -159.423 298.539
-8.35676 -12.8996 330.448
-16.712 -36.8781 323.76
8.61918 -18.1817 338.235
-89.6069 -122.92 290.06
-65.0426 -87.4216 300.681
-81.0369 -72.2582 293.343
-69.6714 17.3412 287.885
-73.9948 -17.3031 294.214
-39.0049 1.84049 311.523
-119.66 -21.7527 173.845
-119.129 -29.7118 205.584
-133.701 -25.1099 72.7205
-130.63 -26.5376 110.956
-118.022 -113.792 201.907
-119.361 -62.2774 159.349
-119.06 -94.115 146.911
-106.609 32.6752 -100.728
-108.709 -0.189003 -45.8498
-132.653 -106.89 7.01057
-129.577 -77.7583 2.57467
-126.697 -106.767 -12.2698
-126.862 -25.7793 24.3604
-132.554 -24.9284 39.9552
-108.687 -189.041 63.851
-123.407 -171.882 33.3662
-117.675 -191.447 19.9951
-113.739 -148.637 104.58
-121.387 -153.552 56.9529
-108.128 -150.143 164.809
-130.975 -151.249 2.56539
-131.738 -151.577 19.8974
-132.369 -134.08 13.0224
-133.252 -59.9922 44.4001
-132.781 -107.85 20.1775
-130.929 -93.0943 57.5305
-115.642 64.6632 -142.114
-112.505 54.1009 -126.017
-102.452 85.3902 -179.18
-111.649 73.5143 -162.442
-101.772 37.1998 -146.111
-107.204 54.1761 -157.239
-94.7616 44.2766 -169.145
2.96635 139.512 -198.648
-35.9691 126.37 -204.576
-31.4161 77.4111 -211.405
-32.8851 96.9508 -213.652
6.54712 85.8252 -219.031
-66.7918 113.919 -204.418
-86.2608 102.569 -197.168
-66.6717 -34.5184 -118.688
-31.8421 11.8142 -173.171
3.09586 9.13217 -169.352
-71.6786 28.4139 -175.819
-52.8516 17.9459 -173.819
-55.0573 -9.41432 -151.642
2.8714 37.6936 -201.499
-31.908 27.0362 -193.066
-33.7995 45.2636 -204.74
-87.3915 73.9615 -196.639
-63.2309 59.8829 -204.645
[...]
POINT_DATA 642
SCALARS Mean_Curvature double 1
LOOKUP_TABLE default
0.038323
0.0454305
0.0276265
0.0287147
-0.0189196
0.0176631
-0.00945642
0.00125121
0.0294586
0.0289611
0.0138213
0.0277674
0.576107
0.0174837
0.00258662
0.00708284
-0.0125627
0.0342255
0.0261082
0.0170512
0.095691
-0.0930021
0.0212718
-0.0049318
0.0184728
0.0112894
0.0146579
0.00726453
-0.00330871
0.00607723
0.0184636
0.0142064
0.00909683
0.0167961
0.0179987
0.0201948
-0.00461084
0.02532
0.0182687
0.00815843
0.00861516
-0.00116215
0.00364833
-0.0308144
0.00349315
0.0174068
0.029914
-0.00251893
0.0165042
0.00352282
0.0186055
0.0112298
0.0156159
0.0218971
-0.00533939
0.0268105
0.0119753
-0.00510638
0.0381057
-0.0518403
0.0546719
0.0428443
0.013926
-0.00521794
0.0162892
0.0215243
0.0254492
0.00885777
-0.000700233
-0.0296787
-0.038285
0.017318
0.407619
-0.025637
0.169102
-0.0346369
-0.0017719
0.00443819
0.0231333
0.0156145
0.00690651
0.00380838
0.00472771
0.00859396
0.0139965
0.0207823
0.0038609
0.0200703
0.00772119
0.00294853
0.0171553
0.00701752
-0.000657233
-0.0256144
0.0115074
0.0509779
0.00592813
0.0136753
0.024685
0.00190473
0.0118107
0.0107068
-0.132654
0.0169996
0.0122341
0.00714956
0.00426134
0.0524444
0.0301733
0.0305832
0.0198858
0.0637997
0.0559182
0.0261175
0.024011
0.00737519
0.0109988
0.000847861
0.0351483
0.0203323
0.0108899
0.00588736
0.0110237
0.0319006
-0.0174132
0.0222458
0.00492658
0.0278824
0.0252259
0.035991
0.0336901
0.0217263
0.0160872
-0.0160592
0.0209393
0.0259284
0.0135227
-0.0321706
0.0154069
0.00344405
-0.0602358
0.0197102
0.000386396
-0.0142969
-0.00779631
-0.000255243
0.0141846
0.00963848
0.00992831
0.011028
0.017754
0.0276225
0.00475466
0.0108787
0.0173116
0.0255858
0.0227086
0.0172855
0.0108209
0.116199
0.0469914
0.00784401
0.0398619
0.0152317
0.0269334
0.0415523
-0.011351
-0.0256521
-0.00675721
-0.000497941
-0.00297488
0.0162212
0.00922096
0.00262714
0.0180867
0.0177922
0.0202173
-0.170255
0.00378609
-0.124903
0.0151667
0.00717621
0.00918647
0.00742201
0.0108034
0.0157663
0.017338
0.0120363
0.0128113
-0.030729
0.00957434
0.00606507
-0.00452291
-0.0115166
0.00147524
-0.00291175
0.0260079
-1.11501e-05
0.00976034
0.00849842
0.0165005
-0.00290173
0.0017299
0.0168529
0.0112288
0.00474494
0.0101178
-0.00287486
-0.00288675
0.00103806
0.00910171
0.0172774
-0.00263301
-0.000251914
0.00701198
0.0152588
0.00825911
0.0146881
0.0266898
0.0596779
0.0451291
0.020522
0.0489831
0.018554
0.0667899
-0.0393704
0.0203169
0.0611608
0.0411014
0.0714497
0.0173274
0.0193635
0.00850547
0.0158027
0.00992578
0.030398
0.0037039
0.00828018
0.00783391
0.000355413
0.0222956
-0.0470707
0.0475901
0.0587403
0.0325603
0.00726603
0.0156302
0.0405241
0.0560759
0.0410337
0.032853
-0.00120273
0.0170205
0.00792018
0.00938267
0.0193361
0.0159457
-0.00674526
0.000123244
0.00634337
0.0148495
-0.173361
0.0657179
0.150382
0.0143177
0.00105292
0.00388407
0.0193843
0.0138969
0.0229999
0.0139844
0.0187761
-0.0190668
-0.0378858
0.388542
0.00185148
-0.0239136
0.0281394
-0.0841679
-0.0927392
0.0435781
-0.847136
0.00184144
0.0153718
0.147329
-0.0417348
-0.00117556
0.00209457
-0.0044062
0.161522
0.0341409
-0.0181612
0.0245325
0.0531334
0.00560575
-0.00442116
0.00877485
0.0165391
-0.00496857
0.00656226
0.00888432
0.0107144
0.00928804
0.0241754
0.0163997
0.0153361
0.0186338
0.0116451
0.0125004
0.00503494
0.0100877
-0.00140987
0.0234356
0.00689192
0.0159289
0.00690884
0.00684493
0.00669581
0.00739275
0.0261549
0.0157237
0.0194793
0.0135588
0.00662446
0.0190178
0.0176561
0.0144227
0.00367913
0.0107267
0.0170753
0.0161604
0.0181128
-0.0056803
-0.00182877
0.00280396
0.0236031
0.0116689
0.0616238
0.014277
0.0151876
0.0129804
0.0136306
0.0123719
0.0116802
0.000607323
0.001078
0.0138093
0.0116533
0.00303109
-0.0031152
-0.000612363
-0.0156735
-0.00308588
0.0202022
0.00694307
0.0014096
-0.0106748
0.0325602
0.00159606
0.0276172
0.00978336
-0.0120018
-0.0393404
-0.067043
0.0299162
0.0243617
0.0139494
0.00376839
0.0049632
0.00183792
0.024901
0.0132004
0.0158979
0.0249104
0.00032034
0.0198905
0.0169215
0.00167208
0.0105023
0.00517903
0.0198076
0.0338112
0.0248916
0.0290582
-0.030235
-0.00287675
-0.00126181
0.0178399
0.00910508
-0.108863
0.0154364
0.0222605
0.0189383
0.0314814
0.0254323
0.0250483
0.0102187
-0.000611278
-0.00255464
0.013886
0.0176728
0.0144297
0.00766781
0.0254342
0.0819472
0.0244558
0.024737
0.0444688
0.00225604
0.00144151
0.0493165
0.0241927
-0.0166153
-0.000667827
0.00503213
0.0157638
0.0270804
-0.00747779
0.0257669
0.0207301
0.0281152
0.00278638
0.00369965
-0.0160321
-0.00134102
0.0203342
0.0192068
-0.0456572
0.0251516
0.0117515
0.0319931
0.0230006
0.0113417
0.00344003
0.026863
0.0203006
0.00227921
0.00189753
0.00144752
0.00634845
0.0338885
0.0203965
0.00310635
0.0259552
0.0331273
0.0277539
0.00811847
0.0165581
0.0170112
0.0210135
0.0298976
0.0176122
0.0569604
0.0261559
0.0205866
0.0219786
0.00932235
-0.0144654
-0.0108936
0.0447023
-0.0113162
0.0238869
0.0241064
0.0295638
0.0173327
0.021432
0.021171
0.0692398
-0.0155652
-0.0110937
-0.00268579
0.0115556
0.0281897
0.0344255
0.0263804
0.0444394
0.0513207
-0.0139766
0.0233919
0.0283405
0.0160242
0.0013537
0.0340309
0.0312189
0.0186603
0.0303001
0.0339817
0.0281162
0.0366058
0.0310879
0.00806621
0.0168759
-0.0141787
-0.0191187
-0.0123828
0.0159307
0.0221828
0.00872257
0.018587
0.0285406
0.0118615
-0.00481
0.0307174
0.0195421
0.0424676
0.032858
0.0252192
0.0294179
0.00265607
0.0360317
0.0185212
-0.0273901
0.0939412
-0.0416788
0.216825
-0.103501
-0.0237895
0.0321445
0.000173578
-0.0426466
0.0319903
0.0301072
-0.0700514
0.00644045
0.0102414
0.108495
-0.0254487
0.0221918
0.00420335
0.0150113
0.0609846
0.0510032
-0.00799201
-0.0617193
-0.0124544
0.00582689
-0.00296263
0.00259985
0.00274273
0.00620188
0.00819497
0.0153923
2.54945e-05
0.0220041
0.00290876
-0.000229887
-0.000621102
-0.00208597
0.0308673
0.0145993
-0.000443756
-0.000232519
-0.00282414
0.010382
0.00263002
0.021922
0.0320341
0.0099904
0.0204782
0.0143097
0.00992331
0.0152714
0.00398877
0.017042
0.00597505
0.0192382
0.0204205
0.0116867
0.00951161
0.0225425
-0.0166119
0.0137045
0.0155292
0.0205215
0.0191776
0.0255605
0.0146521
0.0222379
0.0227773
0.0305176
0.0119397
0.00266632
-0.000634848
0.0149333
0.020927
0.0231964
0.0257969
0.0112836
0.110257
0.0262899
-0.0272781
0.231778
-0.0402812
0.0272232
0.0145151
0.0150975
0.0278281
0.0189314
0.148208
-0.0389357
0.0253492
-0.135708
-0.0121621
0.0222217
0.019922
0.00143582
0.0208843
0.0161682
0.0150074
0.0290097
0.0228852
-3.9098e-05
0.0142201
0.0193435
0.0140833
0.0183821
0.00858191
0.0247135
0.0145774
0.0287246
0.0151435
0.0218481
0.01604
0.025924
0.00809404
-0.0208382
0.0100356
0.000995688
-0.0250304
0.0178242
0.0361865
-0.00959884
-0.0119173
-0.0373452
0.0365217
-0.00211418
0.00741082
0.0185859
0.0459194
-0.277857
-0.174371
-0.0487796
SCALARS CoVolArea double 1
LOOKUP_TABLE default
380.527
479.789
691.233
722.189
1599.86
399.003
5725.89
1449.15
194.174
399.576
548.579
354.164
149.423
511.696
3240.43
1852.62
1186.02
912.125
986.881
971.94
102.771
1394.61
500.503
2408.38
1083.52
405.092
463.895
1476
998.105
2635.7
255.699
1142.18
1432.25
1264.18
976.57
843.081
3678.19
517.775
588.051
2697.53
613.704
1943.83
360.08
3799.48
819.816
426.128
838.287
1186.97
434.16
678.317
564.315
884.191
603.329
461.905
2080.39
410.489
975.754
1145.85
272.15
669.974
392.515
335.94
1160.37
1563.12
1285.07
912.185
309.025
1224.6
1781.81
1213.12
737.335
746.682
96.0636
4926.99
326.705
4792.8
1571.13
2437.34
177.418
613.416
595.313
798.173
755.588
601.418
843.919
681.165
863.253
929.526
1932.13
1408.61
1041.27
2037.7
1339.16
2084.62
736.177
2549.64
1206.66
449.635
471.924
433.895
1122.99
744.569
817.886
616.377
807.101
1676.65
1369.86
321.999
913.867
572.388
1059.64
549.903
2704.37
585.744
1063.85
1070.33
550.376
1067.22
1057.87
1023.74
1325.88
2163.47
1301.45
1046.88
1595.11
989.788
1744.5
948.315
962.231
517.117
463.57
815.985
1387
1275.85
1042.46
518.494
374.775
859.257
872.308
1699.4
1086.77
638.809
1641.09
4007.89
864.62
2538.51
983.66
1257.67
1030.42
824.254
611.586
835.854
495.843
944.159
586.222
1100.19
550.944
732.86
779.271
1297.13
927.393
262.653
316.596
304.239
434.253
1887.75
1319.2
471.703
3122.31
2284.01
4565.16
427.782
494.772
425.448
495.851
428.756
412.834
1004.71
597.462
840.904
461.273
533.09
522.195
2018.71
512.612
1077.49
480.35
478.037
520.241
2197.64
858.812
2432.61
885.593
734.141
2236.94
1310.78
504.337
662.634
1011.35
521.778
403.67
1770.18
1109.4
828.975
1018
1724.99
643.001
713.934
519.214
1223.89
566.368
694.985
2500.93
1129.19
1712.69
1536.34
1796.38
1253.65
634.389
601.471
584.837
306.587
658.19
335.614
429.667
709.811
472.731
484.397
225.494
465.396
327.131
679.542
1291.14
1393.18
1347.24
989.818
1435.89
1090.89
1132.77
1571.67
1145.99
558.327
964.12
882.656
464.654
394.709
1287.83
767.534
175.098
461.536
481.381
1621.1
1222.8
1596.64
1383.64
970.799
1363.39
1658.86
1325.93
1089.85
552.314
297.589
643.715
129.547
863.767
1002.33
1347.28
1524.07
1468.01
816.396
436.798
46.9022
252.631
332.339
136.083
3207.82
2548.91
752.988
1356.47
1730.82
553.124
21.2108
1629.81
691.338
1121.25
2787.52
2201
4584.02
4681.72
160.841
2110.45
541.476
406.725
248.913
2805.74
1852.47
897.014
958.682
2181.91
628.532
597.139
499.85
466.615
456.558
465.81
1346.32
397.454
575.631
578.931
1736.84
791.648
1994.42
482.4
522.406
505.192
1883.67
768.017
1865.53
648.526
546.609
679.978
662.669
666.792
745.097
707.248
717.47
711.822
1265.39
930.256
867.858
578.92
608.053
3134.45
2024.49
1566.02
681.578
1221.53
401.348
993.766
1446.82
1438.17
988.741
1452.88
1125.97
1560.51
807.043
1242.51
1451.91
1318.32
2130.59
3154.38
1656.3
4564.9
472.899
1825.85
946.331
3053.38
1116.12
1849.86
1068.21
588.541
2594.19
999.646
1068.78
380.324
487.952
350.653
1299.82
777.398
2843.41
366.642
503.958
574.596
448.508
895.646
399.939
542.859
1872.56
1406.08
900.575
849.658
654.839
861.82
661.841
3708.97
1155.07
3570.16
660.715
633.849
934.598
905.146
692.082
919.416
654.771
793.07
597.691
1337.3
1703.78
1498.3
1311.31
1083.58
1331.39
1625.76
447.916
534.021
463.959
554.508
252.114
648.692
1207.26
257.124
728.042
256.806
1642.93
1114.25
910.633
387.248
861.639
481.856
1574.73
898.661
1679.99
1953
2390.39
1142.21
595.483
1388.83
1471.37
727.753
760.305
838.441
807.046
854.417
733.228
817.011
723.958
996.307
1005.88
614.134
506.576
1046.45
778.244
1824.91
1078.62
862.125
993.961
1299.34
852.642
1006.16
668.613
952.151
1051.26
1297.06
910.147
786.523
1132.78
2571.78
2489.65
5701.33
1039.23
1478.61
1076.62
1545.76
906.204
1588.54
1194.93
916.686
1100.58
1096.25
5025.36
1648.42
1999.84
719.136
851.844
688.076
982.897
943.545
3500.67
606.775
545.291
1394.89
824.86
508.322
565.021
727.534
491.68
537.072
588.033
469.071
469.373
651.311
1312.42
4052.34
2111.7
3758.32
941.024
1197.32
645.084
504.032
1085.49
790.526
1392.08
1268.11
1365.2
464.175
552.93
558.622
508.154
440.959
394.391
510.324
3860.82
1477.15
3990.26
563.192
940.247
503.617
506.809
767.611
870.272
420.035
789.297
1058.9
1314.61
1194.64
737.617
4351.53
632.085
2735.09
695.34
801.037
489.328
641.604
1486.97
3156.68
1535.3
2832.86
1348.06
2988.86
3868.89
1673.11
517.344
1372.26
455.495
3208.55
2097.74
1443.72
1766.14
1106.52
691.597
1232.76
3156.86
2472.07
1724.93
1812.31
1206.72
466.354
879.584
737.202
741.155
1042.16
1372.17
734.029
642.336
763.893
679.749
707.477
1427.78
1032.31
917.859
2067.92
793.28
817.011
1312.8
602.075
781.902
854.535
795.196
856.287
899.936
761.293
546.253
682.007
653.34
743.497
792.589
693.145
522.509
1147.66
547.698
413.872
548.962
3950.48
447.107
540.64
463.848
487.842
578.107
921.976
4232.25
599.913
708.976
585.258
706.964
690.313
2739.52
396.847
630.621
506.652
448.652
661.174
1208.46
929.564
755.972
687.473
726.026
1458.41
848.293
992.526
761.322
754.454
749.408
884.874
802.547
624.153
1577.99
1476.43
1828.77
2701.18
1560.11
163.623
630.803
3716.07
3365.09
186.725
1289.93
230.216
160.237
170.721
391.708
114.138
888.713
SCALARS SignedDistance double 1
LOOKUP_TABLE default
28.4675
29.4046
21.6872
19.1718
26.6184
26.9035
29.8957
19.1247
30.3291
27.165
30.4385
29.1591
97.5684
24.9461
32.7556
34.1574
30.539
13.6426
20.0272
22.9388
50.9767
40.9503
24.2784
46.3946
20.3465
20.9168
26.2909
30.1446
21.8693
28.2816
27.8846
19.7403
28.4284
19.5945
18.0542
17.114
31.996
22.2474
23.2574
28.9938
25.2897
29.8828
46.4407
61.6244
36.8598
27.764
30.6378
32.9017
28.17
29.4326
25.8665
29.5184
28.3258
29.1613
33.529
26.6924
29.3977
32.3645
23.2916
29.9549
24.2133
23.2544
17.8116
23.8872
16.3568
18.9265
30.8864
19.775
23.706
30.6324
32.413
28.691
66.221
55.8473
44.7614
95.9524
30.8629
35.9935
31.8147
25.8133
28.0926
29.5693
28.1391
27.2068
21.4413
22.2561
25.7041
21.6113
22.1055
22.9403
19.3595
28.7963
28.499
34.9341
29.3916
61.5654
28.3094
23.9149
23.5315
31.605
17.9767
21.2639
60.4421
23.2766
24.6931
19.2557
19.8079
27.7525
18.7578
26.018
33.1314
47.2939
61.101
25.4899
33.5042
23.15
26.1282
26.639
13.7743
16.2379
19.4885
25.1537
20.2871
12.3177
28.543
19.6352
25.843
37.6935
19.9435
16.174
17.5755
19.7518
31.163
38.1953
31.4962
21.7756
26.0964
57.3088
32.571
34.0519
27.4304
30.5516
27.047
40.0474
30.2954
29.1707
27.7363
20.9916
21.7004
22.7807
25.1238
17.7378
27.689
34.0445
22.7528
39.0566
21.1854
23.0465
20.4741
54.1387
37.9509
29.224
33.9351
38.4177
33.054
98.1846
49.033
74.4128
35.237
42.6237
37.3671
29.0447
29.9462
30.2933
27.9151
28.7711
25.1754
69.9401
34.2052
60.161
27.7304
27.9523
25.9484
31.1591
28.1198
30.3088
25.3452
28.2128
28.8449
35.0983
29.5742
33.2389
30.6612
29.0922
32.0183
32.4995
27.1525
30.0834
30.2044
28.0939
28.7485
33.3614
33.0849
32.9514
33.1442
33.6164
30.4887
30.6411
29.603
29.0202
30.2848
27.2771
32.3043
30.1587
31.746
32.5706
33.0285
27.8305
28.0109
26.3205
23.5023
23.1452
27.7793
21.5731
21.0898
30.5236
22.7449
21.3808
21.4967
21.0859
23.1095
29.074
19.2486
16.2504
19.7403
15.8561
21.8999
19.7859
21.3887
21.7302
16.7039
32.2646
28.6691
20.9638
22.4935
25.3619
26.1345
20.4545
48.9527
24.3226
35.4118
20.6106
20.2814
22.9115
19.0137
19.4118
18.217
22.449
32.841
37.6423
29.4549
40.6263
36.7957
48.792
23.0752
38.1643
33.6351
17.6221
31.0504
29.143
38.6905
56.1459
56.4944
62.8164
75.4812
34.4933
43.5124
77.5239
73.9479
67.0443
52.248
55.3397
31.2782
29.1419
92.4227
45.3946
32.4261
30.4904
67.2261
62.2248
61.3937
65.9259
34.8461
30.419
31.6968
35.1426
33.5849
35.9883
43.7999
25.6281
26.7451
27.3012
27.8223
24.3253
26.832
28.9612
27.6761
26.6709
25.4009
31.1399
28.184
30.4412
24.397
27.7674
26.5174
30.8514
28.78
31.8105
24.2614
24.3643
23.2328
22.5843
21.4414
22.9797
20.5609
28.527
26.1265
23.0733
24.8874
24.6279
25.0729
23.3469
21.7312
21.4667
19.7151
21.5343
21.4685
20.9335
18.3104
21.8601
20.7002
21.5575
20.8877
22.233
29.6692
29.1252
29.8096
30.9839
27.9823
29.3388
29.0411
40.977
41.6721
28.4814
29.8312
27.2741
32.8412
33.0389
28.0913
25.449
25.2462
44.7655
30.9981
39.4101
26.7282
27.5228
28.2007
29.1137
28.6269
27.6906
29.6249
31.3366
22.6602
23.5456
29.487
26.3106
23.3219
19.1014
19.0392
21.6988
20.8604
20.3955
19.1559
18.5392
67.3279
30.7636
28.913
25.9504
28.9727
46.0798
21.3528
23.5914
19.5083
18.9622
19.4137
21.1803
19.7078
21.914
21.3843
17.1517
17.7396
18.4678
19.4735
24.577
21.0863
26.8093
20.1997
27.9263
30.7877
26.8746
28.8827
30.08
29.4352
25.9404
31.8147
20.5742
30.0858
35.9923
27.4145
16.9554
23.0776
27.9569
25.3295
48.1849
49.9497
25.6411
27.3869
37.5343
20.7011
24.9579
21.4352
26.1618
26.2531
27.2962
22.7681
25.5338
22.71
26.2521
26.0765
25.9537
22.7478
19.7219
19.745
13.13
13.0812
16.2746
18.9063
17.4988
17.0735
25.4433
22.3349
18.9696
54.7697
18.8515
22.6068
28.4317
20.9
54.9615
32.0736
18.7718
25.5203
15.4925
16.4909
14.1288
22.0036
17.4802
19.6406
56.3541
51.555
46.9176
59.325
20.7566
19.5393
32.6924
22.6762
30.627
24.3305
32.0828
20.2048
16.8728
27.2154
20.4283
17.6841
19.1435
19.1438
19.5381
17.937
18.97
18.3268
17.8355
20.6764
20.5707
35.978
40.3743
35.7054
24.259
34.2758
24.1174
24.368
28.4362
23.672
31.7867
20.2706
29.2352
20.9928
24.0776
20.6334
18.0743
26.2764
24.6097
23.8637
59.659
59.9609
66.5997
62.0674
43.141
33.697
26.2442
38.0175
49.1962
30.9014
24.8578
38.0903
27.5474
27.7147
56.8307
45.7786
24.1735
25.9353
24.2533
25.8431
23.7907
26.2447
30.7815
44.5435
30.796
50.1619
30.1722
29.0112
31.1041
29.1251
31.7002
27.5189
27.7172
26.6417
27.054
29.9005
28.549
31.979
32.7041
30.5369
28.836
21.0307
18.6674
21.2693
18.8185
20.6801
24.4071
21.4281
24.6348
22.7418
19.8125
24.1106
20.397
23.1961
23.0411
21.3641
21.1792
22.3463
19.7667
49.3791
21.7306
27.7501
30.0599
28.0235
19.2379
19.6783
17.7504
14.9127
17.6651
28.7531
27.671
27.8337
27.9661
26.3607
22.8138
26.7195
27.6226
59.9049
25.8241
34.8403
64.4291
72.4008
24.6251
26.3063
23.3073
20.3679
20.7477
63.087
55.0172
61.3653
47.8812
27.79
23.4039
25.7586
26.7619
25.2487
22.4788
23.3489
22.6389
19.4596
28.8854
20.9563
23.5934
28.2585
25.1288
19.0476
17.8279
19.5318
19.2344
21.5773
20.7881
21.1365
18.3615
28.0672
39.7234
28.741
28.943
44.5852
43.641
30.9313
31.0662
36.3063
65.6206
29.5868
33.409
30.2161
28.744
29.2375
59.9329
39.2769
52.3627
