# vtk DataFile Version 4.2
vtk output
ASCII
DATASET POLYDATA
POINTS 642 double
-142.256 270.293 7.97424
140.222 279.517 4.82426
-141.71 -234.711 44.0988
155.662 -242.704 44.6187
1.36048 -177.623 333.647
2.65893 126.786 292.448
2.92997 -91.3679 -139.711
2.10217 206.765 -211.819
203.049 55.9971 -119.085
199.033 7.2824 214.933
-179.292 54.8556 -118.687
-179.418 11.2618 211.97
-178.428 157.357 67.9968
-111.993 79.766 282.789
-47.0757 181.669 139.172
54.7983 184.252 144.891
1.42711 321.607 -8.07632
96.1476 311.431 -111.756
-85.1791 305.225 -108.67
-133.594 125 -203.25
-221.301 191.802 -44.3131
-190.17 25.3298 43.3394
121.485 83.6743 288.773
160.326 146 80.009
-136.038 -99.1367 306.493
5.52352 6.20729 373.436
-184.324 -135.17 -20.9826
-174.918 -143.826 188.905
3.90973 54.4491 -254.363
-113.213 -12.3031 -184.318
215.528 196.864 -52.8137
142.822 127.662 -206.975
196.523 -146.963 193.567
149.787 -100.303 311.095
105.638 -256.899 246.114
-98.9374 -253.61 244.863
0.509448 -266.791 43.4941
-89.9914 -223.888 -76.1362
100.53 -226.62 -78.2786
122.491 -14.8511 -187.391
197.824 -145.729 -23.5462
209.408 9.93542 56.7225
-172.106 220.78 35.0502
-130.971 162.492 93.0078
-114.089 254.824 42.1209
-154.29 45.9934 253.03
-139.495 94.3853 217.679
-165.6 63.2257 185.132
-27.2863 151.241 244.771
-84.4663 127.605 244.596
-56.3484 108.118 296.471
-38.3335 281.547 43.6343
-65.0018 314.784 -3.29112
35.8546 153.58 244.537
5.19182 185.132 151.444
77.0458 319.032 -3.58333
48.1135 282.189 43.6264
111.423 260.048 39.6467
-50.5153 343.318 -51.5197
-114.172 302.724 -47.3838
122.06 316.597 -51.6778
58.4919 344.951 -51.7637
-46.2512 264.218 -170.793
1.94894 316.352 -116.769
52.5563 265.865 -172.376
-170.352 249.699 -80.6056
-190.582 240.941 -19.309
-75.5872 167.585 -219.225
-117.253 221.948 -158.734
-202.513 159.874 -71.4372
-188.175 176.432 -114.93
-169.769 85.655 -160.742
-208.098 194.147 3.97963
-177.854 73.5495 -30.114
-212.55 166.596 -28.5407
-170.407 152.404 45.1227
-183.19 7.39363 143.936
118.286 169.828 108.063
173.036 228.638 30.359
65.9108 109.449 299.723
92.5003 131.079 249.028
185.576 58.6068 188.426
149.225 95.3052 226.613
167.285 47.3445 258.662
-58.7251 50.3656 337.102
3.8625 74.7038 339.795
-163.988 -48.0924 262.906
-127.544 10.9184 305.1
2.43305 -58.1383 365.732
-64.1361 -33.9817 350.589
-82.0307 -145.324 336.374
-192.358 -55.2096 102.385
-178.699 -74.458 210.583
-169.157 -54.9869 -63.1937
-193.698 -71.8768 11.6508
-159.03 -171.79 118.958
-189.429 -142.081 36.0896
-172.443 -191.887 5.59499
-135.756 50.6309 -206.985
-161.064 20.2172 -151.666
3.11442 114.852 -254.044
-76.5101 90.275 -246.399
-70.5122 -58.3457 -174.35
-71.8795 11.9133 -230.695
2.01159 -11.1404 -226.532
124.622 227.52 -164.234
81.1885 170.17 -221.064
192.839 245.804 -21.6942
175.342 258.078 -85.2684
188.111 83.6669 -166.057
192.288 176.81 -122.741
207.3 134.19 -80.0305
177.148 -181.756 118.934
176.369 -208.885 215.637
131.417 -247.584 175.689
180.77 -48.4625 268.404
195.112 -131.308 252.98
201.145 -78.8034 211.061
64.0623 -228.702 313.194
137.728 -191.384 301.885
88.8947 -149.839 337.429
60.4148 -272.865 186.156
95.7098 -268.761 43.6624
-58.639 -226.964 310.72
1.48446 -261.522 249.25
-85.6419 -266.84 44.2313
-55.8307 -271.471 184.799
-120.334 -244.731 171.769
65.4051 -265.969 -23.0013
135.667 -250.092 -23.2297
-123.737 -243.736 -20.9676
-59.8221 -265.896 -22.6173
61.3926 -180.756 -112.564
0.861474 -224.654 -78.2362
-54.5508 -179.952 -113.132
166.105 -196.054 -57.1032
192.887 -200.726 3.16997
76.4175 -60.5539 -176.179
113.975 -162.747 -110.829
187.539 -47.7955 -64.4275
166.901 -111.748 -81.0419
176.175 20.0421 -155.716
203.558 -149.295 36.6088
192.262 57.4883 -47.6095
209.511 -81.0068 13.9178
207.345 -58.3035 106.047
204.982 11.0872 154.338
69.3621 -29.252 359.004
137.497 10.4407 312.196
66.4196 50.0224 342.976
-158.488 -199.244 216.81
-129.511 -186.427 295.97
-173.98 -133.043 247.913
-103.863 -157.627 -108.517
-150.413 -189.484 -52.4127
-157.49 -103.834 -78.4439
147.55 50.7084 -210.859
76.6766 11.0839 -232.753
79.0941 90.2209 -249.989
196.381 92.2555 56.1453
215.123 156.349 -25.4903
205.295 198.788 -0.224753
-159.754 246.609 22.4544
-145.067 240.29 39.9692
-127.781 263.583 28.3411
-152.758 156.203 77.1877
-159.227 214.301 49.3148
-180.34 196.374 44.4185
-87.3173 239.179 59.4922
-131.093 232.01 52.9462
-91.303 172.489 115.315
-168.941 29.0235 232.971
-164.131 53.2798 220.342
-174.356 35.5028 202.473
-129.127 87.4864 252.073
-147.965 72.0534 237.999
-135.373 63.0323 269.712
-151.73 119.009 125.191
-154.299 80.3723 201.498
-141.534 113.114 157.157
-12.6614 140.867 269.056
-42.1713 131.869 272.229
-24.4528 118.514 296.368
-68.5099 145.531 220.727
-56.6388 140.574 246.481
-39.6178 157.761 220.77
-85.1078 95.1722 291.869
-72.6455 119.891 271.049
-98.5929 106.739 265.589
-125.996 122.873 177.725
-115.097 112.378 232.275
-103.283 132.414 203.03
-88.2865 282.504 20.902
-101.523 293.054 0.744106
-44.8437 250.08 70.5547
-69.6371 269.908 40.8246
-41.0914 323.02 -4.58706
-52.275 301.277 18.6444
-26.777 305.471 19.5318
19.137 141.658 269.319
3.4188 154.764 246.952
33.4914 185.057 151.493
19.7826 165.204 223.105
49.2153 161.99 219.874
-10.6922 163.884 223.73
-20.8257 185.028 148.625
104.581 303.84 -1.14397
92.3681 292.136 19.0525
126.434 272.132 24.3228
32.6106 304.221 18.0368
64.648 303.979 18.2521
49.9397 324.667 -5.86613
85.3971 239.601 67.1906
75.0178 276.413 40.2348
52.1601 250.108 73.8507
-14.4569 250.99 82.1028
20.4935 250.134 83.7027
0.895163 281.354 49.0093
-87.9334 315.344 -27.7342
-132.096 288.029 -20.2961
-27.9659 337.309 -30.6754
-57.3834 332.566 -30.7987
-100.922 311.159 -76.1035
-78.235 331.28 -52.5854
-69.6733 332.802 -77.4445
129.769 300.098 -27.015
98.74 323.954 -29.6968
79.8644 337.034 -79.0962
91.8738 336.776 -52.897
112.789 320.536 -77.954
68.6715 335.567 -30.5842
33.9009 337.743 -31.2135
-22.6989 238.197 -195.091
1.94025 267.088 -176.221
27.2649 239.065 -196.024
-49.5192 317.439 -117.56
-26.1193 293.868 -146.212
-66.7434 288.447 -139.923
76.3111 292.197 -141.852
30.8971 293.694 -146.07
56.8063 319.164 -117.839
2.44558 342.753 -51.5964
33.3446 340.207 -82.5326
-27.9703 339.587 -82.2587
-162.162 271.668 -30.4668
-168.997 257.801 -7.16364
-127.977 278.565 -94.2896
-146.151 278.901 -61.9795
-210.222 216.871 -31.1613
-184.839 248.276 -45.3842
-199.786 219.849 -62.4309
-39.1409 188.875 -216.754
-59.8494 221.188 -196.693
-125.152 173.274 -182.112
-94.3122 197.031 -192.319
-107.117 145.61 -215.282
-80.8118 246.797 -168.557
-100.739 264.705 -134.77
-184.615 97.8577 -98.3292
-184.385 116.918 -114.171
-178.857 68.5382 -137.978
-207.412 186.21 -81.0363
-198.438 168.195 -91.6
-214.313 180.995 -54.8777
-154.023 105.215 -184.417
-174.713 134.315 -135.888
-156.894 148.594 -158.879
-149.109 240.385 -119.898
-159.532 198.118 -139.237
-185.568 212.054 -101.741
-182.793 233.486 7.71064
-219.378 193.615 -20.352
-205.485 212.862 -6.91147
-194.269 205.559 23.6226
-191.956 189.953 31.5426
-181.819 63.4333 -93.0551
-193.929 128.056 -55.9618
-214.751 123.862 -11.842
-213.986 138.044 -17.128
-202.574 59.3338 22.2665
-215.471 171.764 -34.0969
-219.347 181.218 -31.8789
-175.6 37.6024 174.663
-181.128 11.6149 190.142
-182.639 166.322 57.0522
-165.57 88.9302 119.133
-191.206 6.6309 87.4757
-178.698 49.4026 111.985
-187.391 77.9909 30.8501
-214.731 185.02 -18.2606
-206.83 167.575 -12.577
-201.748 191.872 12.2656
146.594 245.941 37.7417
161.817 251.562 21.3358
85.6157 178.523 128.976
126.756 234.187 55.3892
176.858 209.489 35.0862
156.805 224.202 45.3158
143.54 159.528 90.0585
31.9612 118.67 297.343
51.2269 133.22 273.599
107.795 109.982 271.136
82.1932 122.311 274.782
94.3786 98.0363 296.839
65.8052 143.935 247.742
74.8915 151.161 222.859
194.789 33.7171 202.26
178.989 53.0037 224.06
185.445 26.1475 237.456
156.16 104.458 180.953
168.417 78.6139 207.85
170.326 89.7189 161.095
146.061 66.9632 275.864
159.114 74.1528 244.701
138.91 90.7356 258.997
106.749 137.22 213.578
123.03 115.186 240.169
134.408 121.453 197.646
-25.5318 94.2003 320.182
2.91125 104.191 317.075
-88.879 68.484 310.977
-59.5315 81.7375 318.335
4.87102 39.8786 359.568
-26.1182 61.8685 342.535
-24.6837 28.099 359.693
-172.763 -17.0462 238.846
-161.391 9.70638 259.526
-131.582 -42.9334 305.462
-148.496 -17.5562 284.086
-154.558 -73.9977 285.904
-143.215 31.3039 280.357
-122.476 47.9537 295.824
-1.31872 -123.954 339.083
-44.2274 -108.628 343.314
-49.8359 -162.816 339.761
-23.404 -8.06231 370.601
-29.4915 -44.6002 362.962
5.38802 -18.0314 379.126
-111.262 -123.996 324.106
-78.1689 -90.9451 340.78
-105.134 -71.016 329.902
-95.5143 31.9241 324.545
-100.186 -12.8528 330.783
-59.4466 11.4402 351.177
-181.902 -21.3377 178.511
-180.284 -29.7958 209.934
-196.322 -20.1201 75.6451
-192.068 -21.1388 119.524
-177.017 -117.054 201.983
-180.368 -65.6059 165.485
-178.99 -100.684 151.028
-171.529 18.5919 -107.722
-173.795 -2.1171 -55.4578
-190.801 -107.527 -4.07741
-188.54 -74.9614 -14.0176
-181.134 -107.125 -33.1575
-189.547 -24.3666 7.36526
-195.551 -23.7992 34.1859
-152.051 -214.093 73.3936
-171.756 -192.005 40.8195
-160.482 -215.673 22.2996
-168.399 -150.716 110.47
-177.33 -165.664 66.1792
-167.941 -163.561 165.51
-181.545 -163.635 -8.84976
-184.457 -165.484 22.8805
-190.737 -139.666 8.98392
-194.701 -62.4404 44.9395
-193.151 -110.222 20.9497
-188.788 -99.9968 64.1886
-168.18 51.3091 -160.055
-172.297 35.97 -135.4
-137.364 86.3411 -208.674
-154.295 68.4103 -187.55
-142.018 8.28776 -170.252
-149.607 35.1594 -181.888
-128.44 19.5096 -197.659
2.17299 157.237 -235.296
-40.8576 142.295 -240.633
-37.7495 71.6237 -254.708
-39.2445 102.373 -253.384
4.36139 83.3858 -261.045
-79.1304 125.438 -239.144
-108.442 109.392 -230.054
-50.6486 -71.4674 -162.992
-36.6703 -27.6012 -211.171
2.59183 -33.5208 -206.261
-95.8311 -1.80412 -209.364
-68.5547 -16.0421 -211.862
-86.6905 -36.5918 -184.368
2.32081 17.6131 -242.976
-38.0732 -0.806638 -231.652
-38.979 29.6144 -245.432
-110.591 69.4075 -230.988
-76.1959 49.4677 -244.004
-106.209 31.3617 -223.823
[...]
POINT_DATA 642
SCALARS Mean_Curvature double 1
LOOKUP_TABLE default
0.0149457
0.0128701
0.0122209
0.0129051
-0.00221908
0.0152946
-0.0144424
0.00343251
0.023098
0.0131988
0.00912437
0.0185133
-0.106237
0.0103033
-0.00134825
0.00221444
-0.00262822
0.0142666
0.0107768
0.0107694
0.0444926
-0.0290953
0.0115159
-0.000484735
0.0074957
0.0139204
0.0114477
0.00512114
0.00369241
0.00574043
0.0118382
0.00941694
0.00728944
0.0093258
0.0105715
0.01493
-0.00140039
0.0137223
0.0145302
0.00599469
0.00687461
0.000271639
0.011716
-0.00285971
0.010052
0.0105023
0.00858422
0.00416183
0.00851912
0.00739868
0.010538
0.00766428
0.0120593
0.00833588
-0.00321363
0.0153014
0.00638807
-0.00014375
0.0295624
0.0074219
0.0205593
0.0250019
0.00867767
0.000722047
0.00849524
0.0105489
0.0178818
0.00702397
0.00326492
0.00417576
0.0157296
0.0087242
0.0682333
-0.0129509
-0.000582217
-0.0215664
-0.000861151
-0.00204037
0.0175053
0.0110372
0.00740213
0.00843596
0.00612437
0.0101728
0.00821062
0.0111662
0.00322253
0.0101515
0.00726104
0.00453263
0.0106514
0.0041057
0.00141123
-0.000291666
0.00810212
-0.0180605
0.00867502
0.0109645
0.0148603
0.0143994
0.00703475
0.0113415
0.0132479
0.0123748
0.00773229
0.00521462
0.00566591
0.0169561
0.0126821
0.0138999
0.00722602
-0.00291902
-0.0136812
0.0190375
0.00677415
0.00337187
0.0181089
0.00425562
0.0143717
0.0126094
0.00896226
0.00794705
0.0081474
0.0143448
-0.00645827
0.00990977
0.00732367
0.0115087
0.010051
0.0148563
0.0146616
0.0128544
0.00634376
-0.00265643
0.00836761
0.0135112
0.0220171
0.0128455
0.010661
0.000913435
0.01014
0.0101109
0.00194421
-0.0112611
-0.00166244
-0.000764771
0.00786832
0.00688597
0.00785327
0.00862106
0.0102585
0.0119635
0.0156617
0.00830894
0.0106019
0.0146681
0.0137404
0.0111999
0.0101147
-0.000203323
0.00875026
0.00852474
0.0132147
0.0127547
0.0138946
-0.0168149
0.00873534
0.0176228
-0.00363016
0.00659903
-0.00432541
0.0102901
0.0108241
0.00999633
0.0103646
0.0109712
0.0104892
-0.0142528
0.011417
0.00960555
0.00888747
0.0092518
0.00764198
0.0037378
0.00804012
0.00682869
0.0104119
0.0103649
0.0100117
0.00608954
0.00870216
0.00653756
0.00207022
0.00647913
0.0013034
0.000150731
0.0154672
0.00878583
0.00770782
0.00851502
0.00985487
0.00166634
0.00866098
0.0102114
0.00919938
0.00247784
0.00997094
0.00564114
0.012186
0.000791818
0.0122905
0.0122059
-0.00282267
0.00266414
0.00351669
0.00872664
0.00699919
0.0041572
0.00775238
0.010443
0.0134685
0.0125427
0.0128013
0.0234627
0.0191339
0.00284829
0.0118014
0.0178968
0.0275945
0.0174722
0.013183
0.0105524
0.00845937
0.00844833
0.00856694
0.0149695
0.00637868
0.00963049
0.0106391
0.00311044
0.0116428
0.0123693
0.0129188
0.0143736
0.0201359
0.0113446
0.00580278
0.00966114
0.021231
0.0135364
0.00828069
0.00278109
0.00993192
0.00348266
0.00536467
0.0094689
0.00854326
0.00135196
-4.23492e-05
0.00748577
0.0158578
0.0291406
0.00501576
0.00704957
0.00967507
0.00340771
0.00267525
0.00901795
0.0078205
0.0121286
0.00851615
0.0532804
0.0129389
0.023478
0.0172192
0.00488407
-0.00605428
0.105654
-0.0492182
0.0486243
0.016003
0.0479797
0.00305865
0.00904834
-0.102598
0.00189986
0.00399697
0.00157952
-0.00781464
-0.00235981
-0.00548704
-0.00571843
0.0135628
0.014262
-0.00115437
0.00502742
0.00864079
0.00873801
-0.00100762
0.0057176
0.00785494
0.0111414
0.0111165
0.0116362
0.00877981
0.00550004
0.0122462
0.00740369
0.00848941
0.00594358
0.00604357
0.000677009
0.0118463
0.0103436
0.0115195
0.00529048
0.00842277
0.00479421
0.00812616
0.0133276
0.0100583
0.00981888
0.0105193
0.00825623
0.00995385
0.00619436
0.0103722
0.0029067
0.00642355
0.0115453
0.0109265
0.0107626
-0.00487067
0.000427418
0.00929933
0.0155886
0.00628728
0.0264614
0.00733044
0.0068058
0.00828513
0.00895426
0.00758081
0.00944029
0.000432869
0.007166
0.00820057
0.00787572
0.000843715
-0.0023564
0.000667532
0.00524344
-0.00278968
0.0093393
0.00585544
0.00411558
-0.00155812
0.0133927
0.00742162
0.00742041
0.0135709
-0.0136625
0.0281787
0.0213825
0.0123649
0.0115627
0.0154439
0.00360357
0.00747364
0.000720705
0.014581
0.0123064
0.0118821
0.012108
0.00698592
0.0111606
0.0112872
0.00188058
0.00761543
0.00940919
0.0100119
0.0172795
0.0126495
0.0150314
-0.00380098
0.00865373
0.00183422
0.0110026
0.00838252
0.01537
0.00754765
0.0112737
0.00894585
0.0136315
0.0133449
0.0137726
0.00831125
0.00275086
0.00359721
0.00800785
0.00878271
0.00788485
0.00466739
0.0124807
0.0123608
0.0174559
0.00878155
0.0178688
0.0101299
0.00624039
0.0180858
0.00886641
0.0204824
0.00217925
0.00409685
0.0087233
0.0161173
0.0102114
0.0142221
0.0077971
0.0141203
0.00611247
0.00787958
0.00229698
0.00546341
0.0170789
0.00692042
0.0113949
0.0152932
0.0137317
0.0143082
0.00964922
0.00715777
0.00999325
0.00989882
0.0124766
0.00621428
0.00156483
0.00952222
0.0116071
0.0172097
0.0200142
0.00664778
0.0127137
0.0144094
0.0150217
0.00605635
0.01326
0.0105226
0.0152167
0.012494
0.0105648
0.00839221
0.0109421
0.0150389
0.00620714
0.00571324
0.000876851
-0.00879855
0.019758
-0.00503572
0.00933828
0.015223
0.0140522
0.0131216
0.00889943
0.00947462
0.00787447
0.00569376
-0.00315153
0.00334598
0.006884
0.00896191
0.00880398
0.0155524
0.0242255
0.0260776
-0.00843532
0.0165275
0.0139068
0.00954163
0.00774756
0.014417
0.0166595
0.01158
0.0139054
0.0149767
0.0144692
0.0161302
0.0137745
0.0137684
0.0078648
0.00306462
-0.00586452
0.00574682
0.00868278
0.00974345
0.00850065
0.012145
0.0113066
0.0107064
0.00181643
0.0114934
0.0103123
0.0145269
0.0125342
0.0123169
0.0135619
0.0136451
0.0156698
0.0139104
-0.00253347
0.00646804
-0.00723741
0.0180622
0.0133235
0.0157837
0.0128237
0.00950734
0.0206255
0.0108442
0.00789417
0.00223987
0.00483757
0.00671092
0.00415058
-0.0110788
0.013498
0.00585428
0.0126527
0.0131233
0.00707007
0.00727587
0.0238724
-0.0108827
0.00602173
0.000216116
0.00378351
0.000913955
0.00632697
0.00456532
0.013651
0.00148302
0.0139715
0.00243647
0.000297737
0.00127723
-0.000745191
0.0192578
0.0254219
0.00313611
0.000245603
-0.00282121
0.00379192
0.0039353
0.0110327
0.0200928
0.00788043
0.0101416
0.00838301
0.00875924
0.00650204
0.00624689
0.0111368
0.00828403
0.0101203
0.0104995
0.00943506
0.00801239
0.0122657
0.00202908
0.0119812
0.0116068
0.0101038
0.0143071
0.0156673
0.0104193
0.0148609
0.0132194
0.0138164
0.0119979
0.00740824
0.00548169
0.0120884
0.00742725
0.0149316
0.01546
0.0181041
0.0081535
0.0110305
0.0154526
0.0255822
-0.00986701
0.0153163
0.010534
0.0124929
0.0136686
0.0120011
0.0172549
-0.0106006
0.00832154
0.00505935
0.00982562
0.0105197
0.0126746
0.00629354
0.0119539
0.0109908
0.0105573
0.0155282
0.0126222
0.00810835
0.00820835
0.010557
0.00807127
0.0108217
0.00705297
0.0132067
0.0103118
0.0130187
0.0153208
0.0126493
0.0102333
0.013234
0.00733616
0.0157111
0.00256265
0.00187674
-0.000644005
0.00507005
0.0195492
0.0182362
-0.00238367
-0.0159299
0.015116
0.00277327
0.0213786
0.0234181
0.0209865
0.0251687
0.0208086
0.00877317
SCALARS CoVolArea double 1
LOOKUP_TABLE default
925.18
994.015
1242.72
1314.19
1791.02
785.586
3649.27
1715.97
570.584
882.104
775.044
776.679
930.376
1067.87
3511.67
2588.71
1528.06
1638.3
1671.87
1595.27
695.526
1664.84
1097.69
2442.96
1728.58
990.093
951.433
1562.61
1525.39
2375.92
883.96
1740.35
1606.15
1901.9
1803.66
1628.58
3354.53
1151.96
1221.99
2504.65
1124.84
2163.27
730.289
2894.71
1001.84
942.61
1230.73
1534.37
846.453
1067.99
1070.87
1333.26
1021.66
908.918
2491.46
899.014
1465.56
1160.58
1063.61
1304.88
1090.36
1177.01
1730.39
2201.29
1832.29
1737.33
898.678
1794.7
2221.28
1261.91
1468.12
1373.91
382.634
4355.49
275.831
3497.27
1832.59
3235.24
588.519
1112.61
1009.23
1117.08
1143.19
1105.46
1444.48
1202.04
1439.61
1572.44
2411.7
2048.6
1624.03
2492.75
1466.65
2098
1214
2375.71
1560.85
991.687
1114.02
1054.55
1730.23
1427.38
1355.08
1242.34
1314.92
2174.62
1882.89
1083.48
1711.6
1274.1
1753.85
1256.34
2335.66
1369.52
1813.07
1646.6
1240.56
1314
1840.73
1821.4
1811.23
2290.82
1962.22
1815.99
2355.68
1792.38
2107.72
1731.32
1653.72
1197.56
1119.43
1503.55
1614.02
1898.31
1403.34
1204.04
964.072
1427.39
1652.56
2324.99
1853
1221.57
1898.08
3192.65
1215.95
2844.68
1405.2
1946.28
1642.1
1435.07
1289.45
1668.49
1055.11
1732.37
1204.53
1636.17
1210.42
1359.9
1462.56
2461.81
1128.36
617.133
847.046
685.529
937.539
1853.17
1285.64
888.18
2780.52
2076.12
4172.27
952.905
877.894
746.278
1022.96
898.846
928.328
1662.14
1286.36
1571.63
896.184
977.21
997.684
2397.25
895.765
1624.95
999.413
929.656
1030.84
1924.21
1297.84
2527.36
1146.31
1263.4
2400.33
1315.31
969.647
986.735
1435.19
956.65
832.756
2335.24
1505.79
1425.21
1498.16
2477.26
1099.34
988.745
975.094
1591.36
956.078
1106.28
2446.01
1250.41
2172.34
2289.96
2436.14
1867.59
1178.26
1244.61
1193.26
840.962
1406.33
965.453
1318.78
1228.06
986.343
1420.29
915.381
1269.56
882.264
1262.18
1788.46
1918.38
1835.57
1754.66
1911.58
1614.7
1675.25
2007.45
1880.83
1537.62
2009.36
1919.77
1163.56
955.691
1972.96
1537.96
889.872
1250.36
1373.62
2007.13
1796.78
2138.06
1890.05
1570.09
1828.51
2081.9
1409.85
1517.29
1064.72
981.622
1028.06
477.587
1433.51
1635.45
1997.09
2222.62
2219.48
1700.7
901.92
449.566
771.851
682.817
398.43
2435.33
2189.3
1109.72
1567.4
2420.72
715.618
230.58
1658.4
1028.23
1202.21
2650.57
2196.29
3658.18
3862.18
309.626
1934.59
787.147
770.933
878.429
3381.21
2135.11
1227.04
1552.59
2664.16
1083.44
1048.91
1000.78
927.852
998.889
901.034
1925
854.75
1017.33
1106.82
2086.34
1136.12
2113.26
1022.21
960.093
1004.22
2453.8
1212.78
2424.4
1175.28
1047.81
1283.26
1206.37
1170.51
1275.42
1302.98
1316.35
1285.81
1888.26
1516.08
1489.21
1148.16
1220.06
2925.83
2391.95
1879.05
1344.2
1904.85
1093.87
1607.71
2076.31
2081.63
1683.55
2113.7
1798.1
1764.18
1201.05
1691.92
1874.42
1393.68
2271.72
3044.28
1594.69
3714.59
918.918
2008.56
1298.05
3242.95
1729.59
2120.84
1539.33
1143.43
2725.52
1479.48
1368.39
928.981
992.338
842.049
1819.71
1240.83
2974.87
933.384
833.692
1231.61
1045.54
1638.4
945.385
1090.05
2185
1920.73
1504.8
1489.32
1278.85
1496.04
1365.71
2799.44
1632.79
2807.01
1172.09
1233.3
1452.72
1457.91
1260.07
1532.37
1433.64
1540.95
1323.08
1877.84
2063.25
1999.67
1838.15
1673.78
1888.58
2138.62
1148.8
1291.67
1278.49
1328.01
958.06
1425.79
1875.73
880.009
1506.44
867.634
2134.71
1806.92
1509.58
905.803
1521.02
1192.84
2269.02
1792.96
2311.44
2206.62
2297.59
2078.99
1052.36
1544.38
1594.99
1384.48
1297.83
1707.11
1433.1
1404.81
1235.06
1540.24
1311.2
1572.13
1215.04
996.843
944.407
1779.04
1472.62
2053.46
1931.54
1637.77
1747.72
1837.46
1505.11
1711.91
1564.02
1883.17
2063.05
2390.15
1686.88
1531.79
1893.38
2574.89
2795.26
4246.44
1774.02
2228.82
1909.04
2164.42
1668.63
2201.94
2010.46
1688.75
2269.72
1961.72
3977.75
2416.68
2275.77
1376.48
1745.66
1432.34
1923.56
1875.98
3115.96
1240.95
1212.12
2009.66
1374.98
1155.49
1200.89
1404.89
1117.51
1177.93
1282.55
1112.74
1097.86
1234.25
1918
2804.28
2059.59
2679.49
1565.66
1691.48
1168.75
1070.1
1593.66
1424.08
2183.49
2005.98
2107.34
1177.5
1254.13
1277.52
1198.55
919.728
1035.88
1063.67
2815.81
1486.89
3461.45
1353.7
1527.01
1158.03
1167.13
1329.18
1422.48
929.162
1349.64
1784.93
1731.58
1805.79
1849.06
3851.8
1329.78
2665.02
1281.76
1448.38
1050.03
1028.38
1665.79
3064.65
1488.58
2957.03
1743.56
2869.83
3213.07
2097.79
1024.22
1612.99
907.536
3094.38
2216.74
1802.01
2135.64
1670.81
1301.24
1793.89
3242.68
2760.05
2358.94
2338.45
1904.99
1153.52
1428.95
1365.06
1301.28
1592.27
2022.94
1234.67
1237.03
1272.67
1227.1
1344.54
2129.23
1712.54
1637.86
2197.87
1546.2
1371.26
1547.83
1012.57
1500.29
1552.83
1478.68
1642.27
1740.91
1256.15
857.19
989.604
1241.09
1460.1
1707.87
1541.9
1232.15
1313.1
1176.69
1126.06
1358.93
3391.68
1058.5
1115.61
1032.06
1095.85
1224.04
1089.75
3601.34
1515.84
1262.1
1144.51
1363.53
1298.57
2632.34
991.614
1192.43
1038.58
1077.44
1360.76
1641.51
1520.83
1317.84
1307.62
1270.43
1950.01
1546.49
1595.46
1417
1379.96
1481.86
1613.24
1577.05
1038.21
2280.7
2105.64
2354.8
3075.6
1464.62
645.099
925.456
2517.41
2847.8
812.825
1535.75
553.795
718.633
717.643
1323.87
625.751
1541.1
SCALARS SignedDistance double 1
LOOKUP_TABLE default
85.4844
85.031
69.7911
64.4004
64.5435
85.0771
94.5467
63.1522
92.9035
84.5575
95.961
93.3502
138.822
83.325
103.739
104.021
84.6591
53.7685
59.5943
67.8548
96.3171
101.52
79.9132
107.965
67.1153
65.2996
86.9748
90.9811
67.2823
85.1818
84.5921
63.1866
84.313
64.2349
52.4657
57.1511
74.2561
68.6891
69.2567
83.4442
80.0023
92.5839
100.304
117.374
99.9383
86.7356
97.9507
100.375
92.4308
94.1955
83.2484
95.0554
86.7541
90.7525
106.555
84.3681
93.6478
97.8616
71.326
74.9877
72.6332
71.6041
57.8339
60.9884
56.6553
62.8228
80.2522
61.8359
65.8032
93.6378
87.5664
81.8318
105.362
111.151
102.911
120.963
95.9293
102.567
95.7466
81.349
90.2804
93.2049
91.7354
82.9739
72.3698
73.9065
81.6493
74.1767
63.1312
66.4777
60.1241
90.1199
90.5276
98.8519
92.8932
96.4899
89.6382
77.8417
74.1164
92.5137
60.461
62.2789
105.231
74.3156
78.4802
61.0641
60.9892
78.0909
60.3644
73.8049
80.0681
97.5084
94.4701
74.2753
78.4313
74.1028
77.982
84.5147
46.5385
52.1011
59.6769
74.4514
63.4969
45.9129
64.4348
63.2653
74.2346
82.5503
62.7614
58.1265
62.5115
62.5542
85.4357
82.1294
85.2348
70.7701
75.5908
104.222
85.0221
92.5919
86.5852
85.8339
82.6558
102.685
92.9194
87.4671
90.6654
62.8541
71.2073
70.5673
76.6649
56.6356
85.451
84.1563
74.6838
94.6766
69.7272
72.7871
62.2674
105.287
100.002
95.4643
91.4626
98.0461
93.703
126.144
105.955
114.921
103.713
104.282
105.756
89.8798
94.314
96.2918
89.901
91.6298
84.4163
110.538
100.015
107.123
88.6611
89.0103
84.0258
96.8397
93.3146
95.8336
83.0092
89.1056
88.9803
106.584
96.2373
102.156
95.6533
89.78
99.752
98.3069
84.6027
92.0879
89.7352
88.4147
92.343
106.573
96.2597
94.5404
95.6184
105.323
87.749
92.9747
93.378
88.6038
90.7223
83.952
99.8714
95.4908
98.5564
99.8002
98.9858
90.6115
80.9548
77.2528
76.3576
76.5111
66.3357
72.5713
60.6968
78.1082
76.414
56.4276
69.3583
60.1558
75.5584
81.0396
59.7073
56.4617
59.0996
53.9424
58.029
59.7357
57.1941
58.8317
55.3688
78.3656
64.9444
58.1382
73.132
80.7758
62.2107
64.875
83.8874
69.0877
71.0697
62.7813
60.6072
68.4057
63.3189
63.186
60.6862
63.5065
96.6343
96.4398
91.6423
89.2418
90.7049
93.8034
74.3747
91.0536
80.9123
61.4624
74.4158
70.5889
88.5589
102.109
90.9252
104.752
113.358
100.061
103.736
130.785
119.703
122.016
101.42
102.142
98.3197
95.2713
132.619
104.455
98.2303
98.261
114.294
101.911
104.331
106.165
95.4355
89.4737
100.999
102.966
101.44
100.648
106.331
83.1908
86.9586
86.0478
86.5361
80.1226
90.1894
92.7773
89.0248
87.9487
83.5972
98.0385
91.683
97.3959
80.912
87.9575
86.6246
94.4987
91.2613
96.353
78.7724
79.4548
77.3727
77.0978
69.4712
73.3401
68.5952
84.6453
83.5261
73.2601
77.1889
76.6933
80.3212
78.4771
65.5871
65.6218
62.105
64.8626
64.0644
61.8476
62.4602
63.3771
67.5229
72.5572
68.9341
69.1908
93.8159
92.1243
95.4389
95.3876
88.7961
92.0925
90.7705
104.35
103.172
88.8457
92.9379
88.9434
97.4835
96.9378
79.8695
80.2389
73.334
93.9761
88.2284
95.1921
80.4608
81.6864
88.2795
92.4503
90.8526
89.0813
86.4144
95.8851
69.9935
76.3858
85.9545
81.3746
78.7033
62.0987
60.5462
66.1178
61.7214
64.0652
59.3352
62.4283
107.189
84.4083
85.8497
79.6849
82.5085
93.5671
71.2037
75.4304
68.2451
65.4964
66.1028
72.0704
59.5481
62.2959
61.5377
58.0757
60.6415
60.0491
64.0775
78.9358
70.3743
72.3494
66.9337
80.6805
67.6558
60.447
84.1311
85.5027
92.4851
73.1682
79.5963
67.0282
89.3864
88.7608
78.5121
58.9608
67.5999
70.2124
74.1174
92.264
88.3409
81.4123
81.3445
88.6809
65.0573
74.0343
60.1551
78.7407
80.149
85.8602
66.3895
75.0817
70.7347
83.2287
82.4567
81.8053
59.8011
57.1837
61.8258
47.6647
46.0648
45.89
59.8741
56.4018
58.5977
73.2655
60.6506
58.1589
88.3675
62.3245
65.6238
72.7901
65.8981
90.3788
89.3949
54.9797
55.7272
51.7643
51.4392
46.6107
56.9275
52.4179
65.2459
89.8584
92.7076
91.326
91.141
65.2382
63.6969
74.9615
64.4348
76.1414
71.2426
76.6037
60.0618
59.3765
70.5904
64.9402
61.6137
60.1198
64.9477
65.0544
61.2786
63.3309
60.1212
64.0187
64.865
65.3527
103.567
97.5436
101.601
73.0176
85.5398
77.1389
76.4413
80.8799
72.1358
71.941
67.451
74.7256
62.5347
66.1539
66.6213
62.8193
79.4533
70.4711
77.9276
105.61
104.091
102.661
107.569
92.9584
87.6887
75.3779
101.838
106.838
88.894
82.109
90.287
84.9412
82.0192
108.533
97.4928
75.7668
83.7898
80.7535
74.9196
77.6715
80.842
81.1321
87.8297
95.9742
104.241
92.1595
89.8387
94.0324
88.2608
90.992
87.4834
89.0183
83.8247
85.8786
91.6608
89.8236
92.0903
95.3771
92.8421
88.8458
63.4795
62.9276
63.7596
60.5865
63.9046
78.0147
74.121
75.7238
72.142
66.6295
78.3325
67.4026
73.0138
74.9875
73.9374
66.4393
69.5023
66.2417
94.8283
65.9794
75.758
86.6515
86.3154
54.492
64.7819
58.1758
49.2272
52.5287
89.0583
87.7899
88.299
82.8877
73.9881
67.8346
72.8681
83.3898
104.432
75.7654
86.6894
109.741
104.317
69.2127
80.1589
75.584
68.2268
69.9018
110.487
102.774
112.024
99.2197
88.0821
76.9609
83.8907
86.4268
79.2231
75.3491
75.9694
71.1539
63.9664
84.2327
68.1969
75.3148
81.206
77.9474
60.6659
59.7688
59.7587
59.3529
65.9079
69.6542
65.4872
62.8857
91.9632
95.8252
92.0002
94.8333
105.92
98.3042
93.7136
97.2547
101.862
112.407
87.7603
99.4458
96.6882
90.3807
92.1327
112.968
99.6876
104.93
