# vtk DataFile Version 4.2
vtk output
ASCII
DATASET POLYDATA
POINTS 642 double
-154.16 289.159 17.691
152.432 297.553 14.8381
-155.771 -249.685 45.9498
167.604 -257.505 46.5226
1.31108 -180.677 351.666
2.17523 146.436 308.752
2.58384 -105.993 -164.552
1.72134 215.206 -229.08
228.249 51.0624 -123.535
223.012 11.5208 222.311
-207.132 50.1949 -122.221
-206.004 14.7447 218.338
-190.445 168.862 83.1603
-126.873 92.8732 297.851
-58.1225 206.688 154.609
64.3124 209.907 159.928
1.50792 343.311 4.91003
102.864 323.412 -120.817
-93.6332 317.716 -117.815
-147.138 130.82 -216.879
-243.442 196.428 -49.1302
-220.129 27.4342 46.7943
135.121 96.406 303.573
183.201 159.123 94.7177
-149.519 -99.5726 321.545
4.40311 11.4735 392.447
-208.723 -139.489 -29.4379
-201.894 -147.912 187.87
3.20314 49.6804 -274.245
-128.268 -26.1387 -198.535
238.814 202.733 -55.8264
154.865 133.444 -220.588
221.043 -151.81 191.812
161.392 -100.826 326.392
111.425 -270.45 251.195
-106.35 -267.554 249.813
0.605068 -287.838 45.8072
-96.4829 -237.487 -90.0947
105.145 -240.428 -92.3853
136.246 -28.5203 -201.729
220.414 -149.487 -31.8405
237.326 13.8322 55.9781
-188.631 235.333 50.9277
-147.92 183.234 112.161
-121.817 273.4 62.8299
-175.576 54.6679 264.848
-160.854 111.883 226.608
-193.094 74.4527 189.819
-33.2193 175.64 257.177
-97.6557 149.826 255.964
-64.275 124.881 313.036
-43.8001 302.069 62.7179
-73.2913 334.966 8.75122
40.0832 177.55 257.27
4.22657 213.128 167.549
83.3716 339.084 8.64657
51.785 302.983 62.3448
120.209 278.689 60.5722
-54.4334 362.386 -50.8248
-126.27 320.207 -47.2973
134.202 332.578 -50.7908
60.6398 364.312 -51.153
-50.2958 275.411 -183.962
1.74573 330.836 -127.109
55.4739 277.015 -185.465
-183.299 261.719 -87.8494
-207.737 255.222 -15.962
-81.5552 175.876 -235.079
-127.861 231.751 -172.312
-228.317 153.236 -78.1877
-206.891 179.955 -128.075
-190.548 86.9692 -171.76
-234.226 196.791 16.2294
-208.628 67.8334 -34.6786
-241.092 159.88 -21.2918
-201.115 149.847 55.0546
-212 11.7229 147.12
135.216 189.231 123.892
190.15 241.116 47.2426
72.106 126.211 316.239
104.665 152.916 260.26
210.092 71.4224 193.136
169.213 112.679 234.943
187.125 56.007 270.35
-67.0029 58.8525 355.687
3.23923 86.7662 358.703
-185.585 -46.2183 274.482
-142.78 14.2957 321.21
1.69762 -63.9899 383.419
-72.3612 -34.6591 368.786
-87.4008 -147.527 353.677
-219.465 -58.251 105.408
-206.211 -75.6376 212.362
-196.706 -57.4022 -72.1835
-221.714 -71.9131 8.11101
-181.658 -187.729 120.722
-215.215 -147.427 39.3923
-192.96 -202.548 2.83007
-150.671 46.452 -222.349
-182.008 10.2978 -162.877
2.54229 120.433 -271.688
-82.3727 91.5644 -264.346
-75.4499 -73.6463 -195.334
-78.3752 2.55426 -249.392
1.69408 -24.0667 -245.711
134.315 236.745 -177.139
86.1844 178.159 -237.124
209.651 259.378 -18.8783
187.902 269.433 -91.6438
206.241 85.4243 -177.161
209.603 181.554 -134.511
234.034 133.188 -85.527
198.424 -196.891 121.286
192.601 -220.359 218.066
142.325 -264.682 174.512
199.775 -46.867 280.054
214.696 -134.141 261.345
226.692 -79.5344 213.612
65.348 -238.054 323.362
147.032 -198.048 312.474
93.1308 -151.566 354.81
61.7489 -293.372 182.695
98.7748 -287.755 45.2448
-60.8987 -236.327 321.068
1.31425 -277.412 256.08
-90.4894 -285.5 45.7213
-57.9344 -291.796 181.935
-132.907 -261.145 171.428
65.9556 -284.189 -28.7633
144.106 -264.777 -29.08
-134.071 -258.593 -26.9211
-61.1606 -284.1 -28.4377
61.5489 -192.186 -133.617
0.883459 -240.835 -93.7936
-55.7293 -191.514 -134.03
180.237 -205.609 -68.9652
211.024 -210.337 0.601693
80.5596 -76.0518 -196.906
124.236 -170.006 -131.158
212.226 -51.948 -72.985
185.886 -115.95 -98.4345
194.976 9.89827 -167.457
227.641 -154.951 39.7489
222.528 54.8102 -49.0315
236.971 -78.7392 9.46285
233.497 -61.1435 108.72
232.239 14.4866 155.775
76.883 -30.8869 376.294
151.587 14.2344 328.146
73.4924 58.7772 361.241
-176.678 -210.776 219.158
-140.18 -193.307 306.883
-196.886 -135.178 255.724
-115.456 -165.269 -128.118
-166.53 -199.494 -64.2685
-178.264 -108.396 -95.7522
160.574 46.4367 -226.408
82.2445 1.97685 -251.475
84.7381 91.5768 -267.901
222.078 100.303 66.432
243.041 151.306 -22.472
229.975 204.283 11.9747
-174.631 263.321 35.5285
-157.727 256.95 58.5367
-137.722 282.87 43.8611
-173.337 174.803 98.555
-173.365 227.785 70.2918
-199.189 206.204 64.2365
-96.0484 258.525 82.0096
-141.46 248.224 74.9532
-104.826 195.231 132.017
-192.962 35.252 242.6
-188.666 63.8844 228.163
-201.598 43.9071 207.206
-147.203 102.924 264.175
-169.347 85.1071 248.305
-153.484 74.0549 283.359
-179.718 128.269 135.862
-179.049 95.0046 208.546
-166.308 131.258 167.627
-15.9329 163.188 283.596
-49.1255 153.069 286.887
-29.179 136.873 313.081
-80.3838 170.286 230.489
-66.4104 164.152 258.456
-48.0216 183.59 230.675
-96.6668 110.165 307.882
-83.3491 139.631 285.184
-112.819 124.607 278.978
-147.62 144.044 188.038
-132.339 132.545 242.837
-119.133 156.045 212.893
-96.7135 303.297 37.9998
-111.545 313.482 12.2499
-53.777 270.276 90.7395
-77.7978 289.713 61.1344
-43.7468 344.153 7.60622
-58.7029 321.617 35.6303
-27.9803 326.872 35.4923
21.1311 163.825 284.019
2.62555 179.385 259.98
37.1301 212.906 167.131
21.3475 191.64 233.448
55.8982 187.548 229.974
-14.1857 190.316 233.973
-26.7173 212.08 164.471
115.142 323.061 10.5439
100.829 311.542 36.4615
136.627 290.526 40.8298
32.8041 325.753 34.1807
68.7202 324.315 35.392
50.7856 345.619 6.63459
94.8789 259.276 87.6652
82.702 295.619 60.3832
59.8959 270.675 93.6274
-18.2253 272.577 101.955
22.9384 271.808 103.194
0.799424 302.581 66.4668
-98.8975 334.344 -20.9704
-143.182 306.625 -15.3445
-28.8877 358.16 -22.9502
-63.9711 352.324 -23.1431
-111.459 325.245 -81.1617
-88.1343 348.773 -51.7196
-75.92 347.382 -82.8662
142.469 317.523 -20.5773
108.528 342.169 -22.4014
84.0376 351.378 -84.5133
99.3874 354.258 -52.2395
121.804 333.638 -83.1848
73.0089 355.628 -23.0292
33.8637 359.027 -23.2998
-24.7676 247.818 -210.269
1.61486 278.572 -189.254
28.5337 248.588 -211.108
-52.6712 330.651 -127.09
-27.6174 306.901 -158.094
-73.1458 300.375 -151.755
80.9693 303.874 -153.65
31.5725 306.871 -157.969
58.5593 332.529 -127.571
2.16053 363.2 -51.1345
33.6272 356.015 -88.6543
-29.0806 354.947 -88.2143
-175.204 287.968 -29.6755
-183.688 274.444 -0.338295
-138.71 291.239 -102.778
-158 293.502 -66.5625
-227.728 228.08 -31.6823
-199.501 261.22 -48.7161
-215.594 230.09 -68.7003
-41.8378 197.287 -233.742
-65.1885 230.268 -211.726
-137.553 181.367 -196.007
-103.55 205.971 -206.822
-116.778 153.183 -229.941
-88.839 257.127 -181.569
-110.662 276.362 -146.614
-212.784 94.7749 -102.636
-210.027 115.931 -122.961
-203.893 66.8162 -145.837
-228.616 189.679 -91.1092
-222.214 165.416 -102.024
-239.605 175.371 -62.5486
-171.548 108.906 -197.104
-195.276 136.418 -147.974
-173.601 154.209 -172.519
-160.15 251.003 -130.848
-172.696 205.613 -152.647
-199.987 220.678 -111.657
-200.309 248.161 17.5793
-244.34 198.944 -14.8885
-224.297 224.594 -0.147062
-213.657 216.714 35.8888
-217.984 192.383 48.4222
-210.698 59.2621 -94.1964
-222.362 119.673 -59.8689
-229.524 119.877 -9.46327
-235.181 131.29 -21.5319
-220.326 58.4307 18.99
-242.282 162.431 -37.144
-248.113 175.175 -30.8465
-204.277 45.1441 177.147
-209.699 14.9843 192.278
-200.488 168.426 70.8824
-194.44 97.9253 126.192
-220.393 11.1476 90.4895
-207.499 55.8323 116.443
-216.235 81.9224 40.3224
-242.784 178.127 -7.54258
-234.506 162.137 -0.536238
-228.63 183.292 25.8988
158.818 262.1 56.4683
176.318 267.846 34.7323
99.0908 201.325 143.97
137.938 251.693 76.709
197.021 218.385 54.127
172.084 237.081 65.4628
163.903 175.541 106.197
35.3442 137.04 314.13
56.5697 154.299 288.477
120.849 127.78 284.155
91.3923 141.988 288.845
104.486 112.834 312.681
74.0954 167.01 260.076
85.7767 175.257 232.63
219.081 42.5172 208.321
201.548 64.1797 232.427
207.433 33.0099 247.421
178.472 121.745 188.172
190.813 93.5688 214.665
195.302 104.339 166.923
162.962 77.5481 289.239
179.446 87.4346 254.546
155.998 106.171 270.446
121.446 159.87 222.603
139.308 135.023 250.071
153.059 141.714 205.954
-30.2174 108.59 338.436
2.45798 119.902 335.044
-100.298 79.0292 328.336
-67.4942 94.2064 336.286
3.99025 48.6601 378.672
-30.955 72.4007 361.474
-29.9508 35.0239 378.545
-196.167 -15.3869 248.011
-182.853 13.1877 271.586
-146.48 -41.6624 321.716
-166.663 -15.5399 298.272
-172.275 -73.1112 299.83
-161.647 37.1773 294.621
-137.615 56.2134 311.898
-1.12745 -127.925 358.481
-46.1287 -112.227 362.647
-51.0599 -165.941 358.07
-29.5282 -6.84383 389.153
-34.6119 -48.1975 380.982
4.26038 -19.1581 397.21
-120.922 -125.325 340.458
-84.102 -92.9118 358.773
-115.586 -71.2905 347.148
-107.226 37.8314 342.315
-111.793 -11.2766 348.242
-68.3996 15.1452 369.72
-210.35 -21.6528 181.128
-207.735 -29.6859 214.143
-225.069 -19.129 76.9468
-220.264 -20.1156 123.555
-204.07 -118.713 202.561
-208.236 -67.729 168.178
-206.237 -104.644 152.416
-199.465 12.4519 -112.011
-202.186 -3.52461 -59.9583
-217.238 -109.019 -9.84419
-215.37 -74.8793 -21.6703
-206.267 -108.561 -43.0963
-218.185 -23.5315 0.868246
-224.231 -23.3437 31.8532
-170.691 -226.636 76.9566
-192.689 -202.947 43.6007
-177.687 -228.486 22.3468
-194.7 -152.184 112.844
-201.074 -173.896 71.2499
-194.38 -172.018 163.266
-203.383 -171.454 -14.3438
-207.092 -173.954 23.1252
-216.359 -144.75 6.28843
-222.803 -64.4093 45.7258
-220.75 -112.273 20.963
-215.467 -104.217 67.8799
-189.498 47.0697 -171.328
-197.802 28.7683 -143.141
-151.9 87.6059 -223.556
-172.427 67.144 -200.813
-159.469 -4.40284 -183.16
-167.84 27.8698 -195.393
-143.336 9.61085 -212.678
1.8215 165.193 -252.427
-43.3201 149.462 -257.59
-40.8314 70.097 -274.244
-42.1899 105.741 -271.451
3.51618 83.678 -280.028
-84.7943 131.049 -255.573
-118.105 113.08 -245.872
-49.3367 -88.2849 -186.222
-39.2848 -43.024 -229.588
2.20895 -50.6358 -224.35
-106.694 -13.8183 -226.192
-75.4392 -29.6574 -230.042
-98.5895 -51.0851 -201.467
1.98764 9.57574 -262.775
-40.9114 -11.7551 -250.81
-41.582 23.3603 -264.989
-120.855 68.2279 -247.867
-82.2701 45.7244 -262.592
-116.92 24.4231 -241.058
70.4735 232.098 -213.576
[...]
POINT_DATA 642
SCALARS Mean_Curvature double 1
LOOKUP_TABLE default
0.0117223
0.0092909
0.00988092
0.0105187
0.000523113
0.0130343
-0.0147037
0.00460575
0.0170303
0.010693
0.0112019
0.0146396
0.0062257
0.0088207
-0.00192817
0.00101859
-0.00031301
0.0116378
0.00948501
0.00904596
0.0218561
0.00920164
0.00954095
-0.00134886
0.00591008
0.0128639
0.011256
0.00571937
0.00464823
0.00554282
0.01251
0.00817733
0.00689311
0.00788226
0.0088583
0.0126498
-0.000709469
0.0110248
0.0117098
0.00581468
0.00614168
0.00148194
0.0101914
-0.00411672
0.0101254
0.00909933
0.00766889
0.00496538
0.00769879
0.00737708
0.00886598
0.0070842
0.0105388
0.00703961
-0.00226299
0.0124936
0.00557094
0.00354129
0.0220111
0.00755047
0.0168203
0.0190262
0.00751888
0.00195495
0.0074124
0.00904025
0.0156182
0.0061283
0.00383789
0.00310016
0.0127056
0.00695945
0.0256646
-0.00845423
0.0110714
-0.0127189
-0.00045272
-0.00290784
0.0132985
0.00928987
0.00758047
0.0082672
0.00675977
0.00878543
0.00726231
0.0094316
0.00424108
0.00852993
0.00667335
0.00424898
0.00965911
0.00309786
0.0030624
0.000460221
0.00729051
-0.0104352
0.00935099
0.0110088
0.0121886
0.00955895
0.0063807
0.00976887
0.00765283
0.0106453
0.00701401
0.00492102
0.0053979
0.0128733
0.00924219
0.0103209
0.00647139
8.66451e-05
-0.00553949
0.015134
0.00589174
0.00285173
0.0145755
0.00522908
0.0115568
0.0105468
0.00846478
0.00857935
0.00743497
0.011536
-0.00435493
0.00816928
0.00813431
0.00950513
0.00811714
0.0118361
0.0116736
0.0108506
0.00442419
-0.000900558
0.00705691
0.0106967
0.0153366
0.00742232
0.00870695
0.000103431
0.00784616
0.00859743
0.00274436
-0.00894008
0.00260512
-0.000889755
0.00675637
0.00612089
0.00735501
0.00770619
0.00896591
0.00963093
0.0136568
0.00688751
0.00940005
0.0105305
0.0115072
0.0096087
0.00910242
0.000330349
0.00934326
0.0125211
0.011017
0.0117018
0.0107698
0.00275792
0.00766388
0.0160969
-0.00164194
0.00610416
-0.00539365
0.00879787
0.00901848
0.0101772
0.00869358
0.00893961
0.00893731
-0.00197026
0.00819626
0.00460043
0.00795228
0.00832008
0.00712831
0.00361136
0.00790616
0.00614357
0.00889147
0.00905547
0.00859842
0.00666036
0.00798768
0.00532138
0.0045332
0.00593831
0.00153383
0.00156287
0.0129967
0.00923158
0.00735488
0.00762424
0.00923903
0.00179808
0.00758199
0.00817984
0.00779468
0.00139697
0.00886277
0.00734805
0.00985187
0.00204051
0.0115236
0.0107275
-0.00197505
0.00393145
0.00332983
0.00730871
0.00553879
0.00270385
0.00751287
0.00765271
0.0115405
0.0119025
0.00935065
0.0191843
0.0134088
0.00450762
0.0111228
0.0123219
0.0209005
0.0120958
0.0122063
0.0104318
0.00763273
0.00718633
0.00759997
0.0121357
0.00625863
0.00880284
0.00919939
0.00374414
0.0101314
0.0103824
0.00954907
0.0100101
0.0148427
0.010279
0.00503239
0.00720051
0.0128563
0.00979868
0.0061069
0.00335883
0.00828215
0.00333366
0.00518853
0.00815589
0.00740549
0.00271223
0.00136204
0.00687769
0.0127996
0.0186574
0.00853388
0.0181935
0.00888114
0.00172734
0.00275302
0.00755628
0.00650665
0.00867119
0.00887512
0.0267221
0.007632
0.0100128
0.0297077
0.00485568
-0.00229453
-0.00222849
0.0232276
-0.00111222
0.00704914
0.0394591
0.00350242
0.00908154
0.021519
0.00137987
0.00409702
0.000714109
-0.00105227
0.0243644
0.00225871
0.0129325
0.011648
0.0115154
-0.00201011
0.00569671
0.00935264
0.00678586
-0.00116882
0.00565089
0.00750566
0.0095867
0.00967674
0.00964197
0.0080552
0.00506697
0.00957393
0.00722617
0.00771746
0.005247
0.00565684
0.00198875
0.00966452
0.00947259
0.00980583
0.0049488
0.00828195
0.00439639
0.00751462
0.0108528
0.00859041
0.00822793
0.00931918
0.0076005
0.00864701
0.00350128
0.00916302
0.00332644
0.00485315
0.010113
0.00927941
0.00914887
-0.0040577
0.00104378
0.0106758
0.0133989
0.00536448
0.0195832
0.00666153
0.00484147
0.00729849
0.00782228
0.00650687
0.00850529
0.000729861
0.00752435
0.00728657
0.00676312
0.00100371
-0.00197549
0.000849549
0.00412918
-0.00373494
0.00762829
0.00497142
0.00410523
0.000925375
0.00787435
0.00629576
0.00801825
0.0108894
-0.011098
0.0168178
0.0157267
0.00895073
0.00806417
0.0138029
0.00344886
0.00795395
0.000832813
0.0109348
0.0121993
0.0102549
0.0101639
0.00668785
0.00985105
0.00988114
0.00211162
0.00691204
0.00903525
0.00819853
0.0135869
0.0102711
0.0121135
-0.000833038
0.00755524
0.00246353
0.00953406
0.00748615
0.0100363
0.0064341
0.00949429
0.0075472
0.0109821
0.0108477
0.0114381
0.00741309
0.00319638
0.00480764
0.00691077
0.00748509
0.00681885
0.00442811
0.0100745
0.00870352
0.0130773
0.00805103
0.0109999
0.00922043
0.00603274
0.0143496
0.00700003
0.0142942
0.00271588
0.00318722
0.007765
0.0132846
0.00766552
0.0117061
0.00640252
0.0108981
0.00628554
0.00600056
0.00182154
0.00440686
0.0161655
0.00739898
0.00872103
0.0136932
0.0136875
0.0100348
0.00724366
0.00585597
0.00901917
0.0085204
0.00995231
0.00673175
0.00282037
0.0111518
0.0133678
0.013453
0.0160382
0.00853546
0.010541
0.0113819
0.0120345
0.00576179
0.0120555
0.009502
0.0109346
0.00976139
0.00904061
0.00467731
0.00894813
0.0125838
0.00534497
0.00493582
0.000158727
-0.00559594
0.0153502
-0.00344505
0.00768162
0.0128791
0.0111257
0.0114174
0.00739498
0.00795975
0.00427663
0.0039375
-0.00251328
0.00237824
0.00623021
0.00744532
0.00723555
0.0127274
0.0194151
0.0208599
-0.00565519
0.0129543
0.0115694
0.00798231
0.00856274
0.0114264
0.0131206
0.0104174
0.0115367
0.0120554
0.0115717
0.0124905
0.0112252
0.0125089
0.00671291
0.00517103
-0.00447976
0.00619727
0.00748619
0.00841099
0.00896831
0.0105707
0.00926457
0.00976201
0.00224789
0.00910438
0.0086432
0.011514
0.0102023
0.0101496
0.0110029
0.0140171
0.0116815
0.0124819
-1.2628e-05
0.00600969
-0.00760904
0.0147222
0.00959965
0.0108982
0.0104234
0.00893888
0.0112443
0.00809473
0.00682986
0.00149295
0.00475378
0.00668667
0.00675599
-0.00975722
0.0106643
0.00656488
0.011769
0.0106179
0.00315618
0.0114406
0.0156185
-0.0102557
0.00860159
-0.000960745
0.00419356
0.000853662
0.00446351
0.0030437
0.0129493
0.0025057
0.0120908
0.00216852
0.000637234
0.0014823
-0.000327548
0.0159738
0.0207382
0.00251991
0.000887863
-0.00250394
0.00313064
0.00335874
0.00881296
0.0166424
0.00732191
0.00844461
0.00720653
0.00768316
0.00496795
0.00637856
0.00965785
0.00782055
0.00841542
0.00875697
0.00839062
0.00728068
0.0103804
0.00368584
0.0113996
0.00928491
0.00912208
0.0116607
0.0121355
0.0102035
0.0124478
0.0109266
0.0107023
0.0102981
0.0107047
0.00775112
0.00833098
0.00633584
0.011613
0.012398
0.0154201
0.00905466
0.00973026
0.0092571
0.0155265
-0.00824615
0.0119183
0.00838711
0.010943
0.0110651
0.0100992
0.00918406
-0.00911762
0.0103109
0.00428196
0.00895878
0.00885603
0.0102376
0.00668827
0.01067
0.00961624
0.00926728
0.0126928
0.0102879
0.00736875
0.00734421
0.00907053
0.00713358
0.00938101
0.00660145
0.0107424
0.00879974
0.0102641
0.0134935
0.0105933
0.00880025
0.0108805
0.00792971
0.00930724
0.00163267
0.00186902
-0.00147285
0.00646137
0.0131728
0.0153182
-0.00127211
-0.0108272
0.0118268
0.00495879
0.0167307
0.0158223
0.0179147
0.0170453
0.015574
0.00534704
SCALARS CoVolArea double 1
LOOKUP_TABLE default
1192.65
1254.19
1503.64
1572.34
1957.42
1007.2
3321.66
1875.13
810.617
1136.37
961.452
1026.16
1173.92
1365.08
3546.38
2803.21
1763.99
1969.6
1979.62
1889.36
1214.58
1971.73
1412.45
2612.43
2014.01
1332.63
1238.3
1697.02
1811.32
2448.13
1260.85
2027.29
1769.34
2183.25
2172.91
2003.26
3365.9
1483.5
1552.8
2590.45
1397.78
2358.35
1029.82
3006.24
1193.96
1227.62
1505.15
1729.79
1085.38
1320.47
1346.68
1568
1300.24
1156.85
2726.09
1205.48
1693.19
1302.85
1511.28
1644.06
1450.3
1623.16
2006.12
2476.24
2096.13
2060.38
1232.77
2058.89
2448.07
1450.63
1837.01
1675.77
833.598
3879.68
496.101
3201.75
1983.05
3417.05
859.956
1386.73
1264.49
1323.76
1389.93
1385.33
1752.4
1484.62
1714.95
1883.04
2628.92
2349.88
1909.02
2689.46
1601.15
2283.71
1462.85
2514.58
1809.44
1295.63
1462.79
1364.26
2008.7
1776.22
1769.68
1577.91
1577.31
2425.88
2134.21
1448.69
2066.72
1599.33
2056.38
1571.43
2543.18
1793.63
2085.42
1907.33
1634.42
1506.49
2183.16
2190.17
2063.92
2468.37
2237.11
2155.23
2698.16
2098.45
2344.63
2025.36
1974.27
1535.36
1451.28
1840.77
1818.72
2173.89
1644.9
1567.86
1315.51
1806.86
1971.81
2605.31
2129.31
1501.43
2110.49
3031.06
1440.46
2991.6
1611.54
2267.88
1947.85
1750.56
1669.84
2060.42
1418.9
2018.02
1535.79
1973.14
1562.41
1685.66
1812.49
2819.13
1319.86
896.328
1147.56
954.167
1242.73
1880.07
1471.55
1132.14
2714.44
2149.3
4132.01
1243.03
1143.39
986.093
1320.17
1173.83
1207.72
1967.67
1568.34
1804.71
1147.9
1236.91
1265.88
2540.27
1126.79
1834.89
1278.78
1195.77
1322.99
2202.08
1602.43
2746.05
1383.55
1550.23
2501.33
1433.28
1253.09
1223.45
1673.1
1204.38
1082.2
2606.13
1736.58
1677.94
1726.52
2732.25
1386.34
1230.54
1261.07
1795.67
1201.3
1370.58
2468.77
1390.88
2353.38
2580
2707.11
2131.73
1483.8
1564.93
1560.73
1178.11
1733.75
1333.41
1735.37
1524.06
1314.55
1843.43
1318.68
1638.48
1235.58
1621.82
2039.33
2175.32
2080.62
2093.07
2161.15
1886.01
1947.9
2239.98
2201.11
2032.22
2438.16
2363.93
1529.41
1274.37
2255.43
1870.35
1311.52
1600.01
1800.17
2217.22
2064.99
2377.22
2129.54
1849.03
2072.94
2320.04
1608.49
1798.65
1373.73
1435.99
1327.03
798.639
1707.59
1926.92
2272.31
2532.21
2541.81
2114.73
1197.41
930.35
1162.52
1081.39
816.504
2375.08
2133.96
1354.22
1558.1
2438.33
885.587
566.446
1814.79
1232.64
1412.44
2693.84
2340.78
3564.36
3652.35
576.539
1812.04
959.568
1009.87
1206.81
3512.94
2256.8
1441.86
1767.56
2862.31
1340.5
1304.78
1301.04
1199.93
1291.37
1146.54
2146.64
1121.27
1277.66
1383.62
2290.68
1350.51
2254.68
1313.6
1225.48
1303.76
2672.16
1494.23
2655.83
1457.9
1323.69
1594.53
1488.95
1453.37
1557.43
1623.14
1607.09
1569.37
2168.89
1795.39
1769.42
1444.9
1538.55
2948.92
2575.17
2102.68
1694.08
2205.63
1459.64
1889.3
2335.85
2366.26
2030.95
2433.65
2142.38
1890.44
1448.41
1947.7
2080.11
1490.19
2353.95
2994.84
1798.09
3605.78
1176.13
2153.53
1488.52
3156.88
2000.66
2296.07
1797.17
1450.09
2813.21
1849.55
1702.89
1230.33
1293.27
1151.32
2089.16
1522.65
3040.34
1255.12
1121.91
1576.41
1355.21
1825.48
1246.55
1399.97
2363.37
2168.58
1825.14
1796.52
1596.8
1801.68
1718.35
2809.36
1856.58
2746.61
1476.87
1517.81
1808.9
1724.52
1548.13
1842.54
1835.06
1926.48
1711.55
2137.65
2263.67
2266.06
2098.16
1947.16
2144.22
2388.24
1477.96
1629.99
1668.65
1671.19
1330.34
1766.95
2184.85
1214.51
1828.52
1190.16
2373.01
2078.38
1790.39
1214.77
1809.69
1558.55
2590.62
2188.88
2609.13
2431.62
2457.58
2391.26
1383.02
1765.56
1870.97
1711.14
1604.72
2112.46
1721.96
1679.59
1520.56
1882.83
1612.73
1843.55
1377.95
1266.17
1267.28
2105.06
1831.64
2239.89
2300.67
2004.03
2078.7
2092.24
1841.62
2046.52
2044.38
2310.89
2512.3
2698.13
2005.18
1909.23
2170.97
2686.92
2958.18
4030.32
2101.58
2523.07
2295.2
2442.65
2013.21
2472.56
2379.94
1999.29
2600.82
2285.8
3868.6
2684.54
2467.98
1681.39
2047.82
1802.27
2352.73
2307.87
3178.24
1564.74
1533.66
2278.64
1661.05
1484.01
1529.49
1743.08
1430.72
1501.86
1632.72
1448.85
1419.99
1543.16
2195.61
2773.9
2200.4
2679.35
1866.75
1918.54
1450.8
1366.29
1836.17
1741.61
2520.61
2345.68
2437.77
1526.45
1584.48
1632.35
1533.49
1216.78
1386.63
1395.11
2812.27
1808.48
3487.92
1815.94
1883.97
1481.69
1513.8
1645.43
1793.71
1222.15
1610.07
2090.25
1915.24
1963.36
2130.85
3702.05
1706.31
2801.48
1632.76
1779.16
1363.08
1305.61
1978.93
3115.08
1611.32
3041.63
1958.03
2877.87
3135.85
2269.71
1315.09
1779.21
1172.32
3079.03
2305.03
2000.74
2301.83
1943.28
1660.68
2096.45
3343.13
2899.24
2625.69
2564.57
2217.64
1530.18
1703.8
1678.73
1587.16
1866.82
2316.25
1506.49
1568.59
1552.4
1512.83
1662.95
2465.14
2058.11
2010.3
2337.67
1923.25
1661.25
1772.36
1323.12
1857.3
1888.47
1819.05
2003.45
2129.19
1534.29
1121.64
1226.7
1553.48
1798.26
2170.13
1989.11
1683.11
1697.01
1502.41
1458.31
1833.46
3376.6
1386.84
1435.78
1342.08
1416.57
1555.97
1463.63
3491.96
1872.75
1599.69
1439.45
1712.54
1656.41
2767
1307.9
1506.33
1337.62
1405.01
1711.01
1870.79
1827.55
1599.78
1591.62
1579.41
2192.12
1886.96
1890.35
1737.55
1718.2
1861.4
1988.94
1969.82
1261.13
2623.65
2318.92
2479.69
3169.24
1593.74
981.284
1171.46
2383.29
2873.97
1170.37
1723.02
831.701
1087.67
1099.68
1761.1
943.243
1820.54
SCALARS SignedDistance double 1
LOOKUP_TABLE default
110.695
109.547
91.4835
84.775
81.7296
111.475
123.489
82.6446
118.577
110.881
125.105
120.966
158.193
109.622
135.789
135.577
109.983
72.2208
78.4929
88.9957
116.297
132.13
105.139
136.648
88.5179
85.7998
113.774
118.632
88.0298
111.088
108.431
83.6549
109.497
84.3698
69.1917
74.1483
94.176
90.6209
89.7833
108.345
105.411
121.336
127.238
148.186
129.052
113.515
127.706
131.274
121.642
123.244
109.302
124.397
112.127
119.64
138.542
109.364
122.639
127.494
90.7835
94.7692
92.4477
90.5005
76.7278
78.5059
75.4435
83.346
103.364
81.6397
85.6396
121.966
109.652
105.595
133.298
140.006
134.501
149.362
126.121
132.803
123.467
106.922
118.736
122.044
120.479
108.236
95.6253
97.3384
106.907
97.8596
82.0617
86.7853
79.1817
118.325
118.868
128.167
122.008
122.077
116.348
101.033
96.8514
117.89
79.8641
82.3202
128.207
97.0907
102.519
80.6329
80.058
100.315
80.1062
95.1852
100.627
122.76
117.509
93.3737
98.013
97.0629
97.9395
110.82
61.5138
68.6177
78.0219
94.8118
83.3717
61.2814
79.5077
83.3171
94.5243
101.922
82.9618
77.8583
83.2654
82.7792
109.341
103.314
109.187
92.5494
94.899
127.07
108.394
119.181
113.818
110.602
108.123
131.011
120.991
114.41
119.057
82.4607
93.8866
93.0363
97.9686
74.399
108.802
107.896
98.1487
122.257
91.4602
95.3531
81.1546
132.54
128.898
124.168
117.977
126.732
120.925
155.792
134.597
141.194
134.437
133.403
137.174
117.195
122.787
125.805
117.717
119.791
110.937
142.054
130.146
140.72
116.644
116.495
110.252
127.192
122.575
126.084
109.132
116.623
116.55
139.121
125.514
132.575
123.409
114.142
130.63
128.14
109.59
119.755
116.713
115.982
121.179
138.483
125.619
124.144
125.365
137.714
112.182
120.533
120.079
116.094
118.081
108.98
130.547
124.991
129.012
129.992
128.833
119.356
103.816
100.331
99.3016
99.4826
84.1798
92.9729
77.5028
99.9807
99.2208
72.5248
88.6841
77.1031
97.9308
103.71
78.6048
75.2027
77.9376
72.5271
76.0537
78.3538
75.0854
76.8997
73.144
96.8
80.7482
74.4477
94.8688
105.042
81.6342
85.2126
103.816
89.894
91.5364
82.1867
79.9466
89.3579
83.7269
83.767
80.4824
82.7743
125.495
122.439
117.373
111.491
117.123
120.888
96.7616
112.804
102.482
82.2233
93.9806
90.6459
113.971
125.54
114.03
127.522
143.875
129.421
132.718
147.799
142.604
140.065
129.811
131.648
128.972
124.952
155.639
136.198
128.362
129.124
143.401
134.49
136.34
138.957
123.979
115.952
132.192
131.808
130.41
128.942
135.723
109.267
114.286
112.706
113.258
105.353
118.995
122.65
116.001
115.558
109.614
127.551
120.788
127.987
106.204
114.953
113.417
124.231
119.829
126.105
103.427
104.312
102.194
101.867
91.2574
96.3521
90.4721
110.662
108.954
96.2533
101.046
99.7555
105.609
103.462
85.09
85.5027
80.8884
85.2154
83.6438
79.9686
82.6749
83.4625
88.6786
96.0595
90.9904
90.8051
123.131
120.352
124.997
124.548
116.676
120.794
118.843
132.499
131.283
117.209
121.687
117.171
127.34
126.347
102.94
104.254
95.28
119.15
114.215
122.203
105.157
106.862
114.58
121.407
119.284
117.493
110.933
123.176
91.7015
99.4452
112.097
106.005
103.377
81.7514
80.1865
86.2278
81.1882
83.3082
79.2469
82.2956
131.243
109.046
111.067
103.992
106.651
118.176
93.7993
98.8035
90.3881
86.6315
87.2393
94.9919
78.5309
81.5251
79.8202
77.2759
80.3695
79.7016
84.3236
102.565
92.098
92.2855
88.3843
101.032
86.1513
78.6875
107.782
109.137
118.332
93.9731
100.834
88.3042
113.587
111.291
100.944
78.7416
86.0809
89.777
95.6204
111.803
106.24
105.141
104.206
113.584
83.6572
94.2763
75.7046
103.08
105.066
111.741
86.9465
97.0863
92.6453
109.299
107.39
106.463
75.2264
71.9259
80.6461
63.7271
61.2898
60.7926
79.1775
73.5251
77.3217
91.9039
78.6247
74.9548
104.613
82.0099
83.3361
92.35
86.5426
106.906
111.805
70.6411
70.7834
68.2895
66.8151
62.8624
71.8439
68.1992
86.0338
106.59
111.242
108.926
106.929
85.818
83.2405
94.1402
82.8136
93.7999
89.4318
97.9344
78.9389
79.1341
90.3814
85.1391
82.1148
79.1425
85.6901
85.8651
81.5736
84.2329
80.3438
85.2585
84.6404
85.8913
129.618
120.232
126.576
94.941
108.187
100.05
98.6969
103.7
94.1852
91.4421
88.7852
95.4139
82.4559
86.4767
87.977
83.494
102.53
91.3614
101.325
129.663
130.634
126.043
133.582
116.699
109.616
97.7601
127.66
130.589
113.121
108.081
117.119
111.537
107.126
131.091
122.804
98.9543
109.898
105.587
96.6668
102.73
104.914
105.7
111.16
124.578
129.357
120.135
117.693
122.569
115.267
116.655
114.948
116.689
109.848
112.799
119.845
117.617
119.449
120.288
119.986
115.388
82.9384
83.2483
82.7308
79.7789
83.2308
102.335
97.9174
99.818
94.8964
88.1285
102.866
88.8895
95.7503
99.1326
97.8436
87.4111
92.0556
87.0322
116.057
85.2946
96.3909
110.326
111.267
70.0234
84.9789
75.7953
65.4969
69.1233
115.187
114.848
115.455
105.444
95.9561
84.9756
92.4625
105.231
130.319
99.0865
108.42
133.614
129.367
90.718
104.696
98.4384
90.1036
92.2524
137.454
129.764
138.616
127.368
115.547
101.332
108.736
112.955
102.657
99.1732
99.5235
92.8775
84.3763
108.762
90.0645
98.2996
105.176
101.765
80.0653
79.0763
78.5069
78.5488
85.5102
91.8725
86.1727
83.4365
120.996
124.683
120.947
124.865
134.571
127.021
119.547
125.459
131.701
140.016
112.962
129.402
123.57
113.833
117.579
141.346
127.469
132.675
