# vtk DataFile Version 4.2
vtk output
ASCII
DATASET POLYDATA
POINTS 642 double
-278.165 480.89 53.8301
278.553 481.55 53.8218
-278.658 -420.183 53.8781
279.158 -420.968 53.8828
0.00761297 -249.919 507.975
0.00593409 307.795 502.338
0.00911171 -245.694 -393.404
0.00483359 310.184 -398.176
449.077 30.7921 -223.716
448.38 30.7009 331.094
-447.969 30.7914 -223.041
-447.244 30.6942 330.404
-424.5 293.179 215.922
-263.532 193.588 480.41
-161.214 452.849 314.692
161.378 453.276 314.958
0.00725316 561.493 53.8187
164.587 461.707 -212.422
-164.393 461.245 -212.137
-265.106 194.619 -375.121
-427.93 295.28 -109.575
-522.271 30.7928 53.8616
263.908 193.815 480.999
424.118 292.927 215.803
-265.748 -133.588 483.95
0.00887565 30.72 585.803
-426.505 -232.93 -109.011
-428.22 -233.98 217.604
0.00839886 30.7958 -477.101
-263.868 -132.253 -373.163
428.548 295.658 -109.818
265.378 194.785 -375.542
429.583 -234.81 218.093
266.089 -133.787 484.472
165.195 -401.752 321.24
-165.06 -401.419 321.027
0.00481789 -499.204 53.896
-163.74 -397.962 -211.006
163.917 -398.381 -211.267
264.151 -132.426 -373.596
427.753 -233.708 -109.486
523.779 30.7531 53.8874
-365.757 400.892 138.494
-307.648 390.997 276.268
-228.47 485.068 190.652
-369.69 115.305 419.348
-361.067 253.717 362.338
-452.004 166.885 281.344
-84.2755 394.745 422.361
-223.118 339.2 415.254
-137.021 259.463 508.821
-85.7692 532.34 192.325
-144.967 541.214 53.8187
84.3176 394.857 422.475
0.00595654 474.883 328.507
145.128 541.701 53.8218
85.8315 532.594 192.391
228.732 485.603 190.8
-86.5745 537.205 -86.0435
-230.449 489.061 -84.1907
230.896 489.91 -84.4406
86.6306 537.467 -86.1163
-85.4268 399.797 -319.495
0.00627888 483.59 -226.045
85.4736 399.949 -319.648
-311.711 395.813 -171.601
-367.45 402.612 -31.2043
-137.988 261.138 -404.145
-225.595 342.695 -311.339
-455.82 168.165 -175.357
-364.336 255.863 -257.249
-371.161 115.706 -312.988
-448.914 308.371 53.8339
-504.201 30.8969 -89.429
-502.176 169.559 -31.9953
-499.769 169 139.26
-503.55 30.703 197.06
307.328 390.637 276.053
366.012 401.155 138.553
137.143 259.64 509.175
223.401 339.567 415.681
452.942 167.167 281.796
361.697 254.107 362.867
370.347 115.45 419.982
-139.112 116.811 557.572
0.00878175 175.393 563.37
-371.359 -54.3165 420.973
-278.085 30.7036 503.766
0.00265291 -114.606 565.492
-139.46 -55.5972 558.772
-138.664 -200.8 514.186
-497.833 -106.928 139.15
-455.194 -106.539 282.952
-452.704 -105.716 -173.855
-498.793 -107.169 -31.4307
-366.432 -340.109 138.847
-448.228 -246.49 53.8761
-367.061 -340.748 -31.0915
-278.586 30.7884 -396.753
-370.31 -53.9196 -312.153
0.0067612 175.935 -457.199
-139.543 117.122 -451.192
-137.038 -197.938 -400.944
-139.212 -55.3456 -449.99
0.00500462 -113.752 -455.064
225.882 343.076 -311.778
138.078 261.276 -404.416
367.732 402.908 -31.2871
312.19 396.378 -171.951
371.76 115.831 -313.557
364.877 256.201 -257.714
455.932 168.196 -175.442
367.045 -340.708 138.991
313.322 -336.187 280.608
231.372 -429.287 192.591
371.944 -54.4459 421.538
366.215 -195.548 366.704
456.566 -106.933 283.628
85.9573 -340.487 429.561
227.215 -283.387 421.729
138.825 -201.066 514.695
86.7801 -476.88 194.272
145.141 -480.13 53.8744
-85.904 -340.297 429.368
0.00589624 -423.461 334.745
-144.995 -479.681 53.8765
-86.7411 -476.692 194.222
-230.969 -428.519 192.379
86.3659 -474.227 -85.6105
230.509 -427.577 -84.1671
-230.167 -426.928 -83.9715
-86.3196 -474.034 -85.5563
84.9472 -336.043 -317.157
0.00667143 -419.468 -224.416
-84.8981 -335.898 -317.011
311.574 -334.146 -171.457
367.922 -341.599 -31.2862
137.122 -198.07 -401.186
224.747 -280.021 -309.876
453.552 -105.941 -174.242
363.284 -193.722 -256.3
370.952 -54.0638 -312.764
449.558 -247.308 53.8761
506.054 30.8422 -89.9622
500.96 -107.762 -31.7639
499.544 -107.387 139.404
505.157 30.7135 197.509
139.611 -55.6708 559.278
278.554 30.7145 504.513
139.268 116.894 558.08
-312.962 -335.775 280.366
-226.936 -283.017 421.295
-365.674 -195.227 366.257
-224.416 -279.593 -309.375
-310.953 -333.445 -171.014
-362.435 -193.181 -255.583
278.911 30.7876 -397.261
139.287 -55.3846 -450.235
139.628 117.167 -451.479
496.903 168.12 138.832
501.685 169.453 -31.9408
449.205 308.55 53.835
-325.188 444.809 96.6568
-300.997 448.452 166.021
-255.759 487.456 123.087
-370.706 346.19 248.57
-340.412 400.03 209.401
-399.085 350.011 178.512
-196.843 473.767 255.04
-271.153 442.417 235.602
-237.015 426.468 298.196
-412.475 73.3889 377.972
-416.398 142.59 354.079
-454.007 99.5917 308.279
-316.361 226.101 425.827
-369.137 186.309 394.318
-319.717 155.634 453.719
-441.075 231.299 249.886
-410.767 212.217 324.594
-396.627 275.748 291.463
-42.6375 354.472 466.206
-112.014 331.184 470.943
-69.1609 286.09 509.969
-194.529 400.913 369.022
-155.345 370.495 422.562
-124.109 427.859 371.708
-202.236 228.426 498.901
-182.109 302.202 466.142
-246.291 269.516 452.731
-338.428 326.042 322.591
-296.076 300.07 393.312
-268.724 369.206 349.351
-189.326 519.32 123.369
-213.634 515.543 53.8201
-125.406 498.633 256.392
-158.749 513.671 192.969
-73.236 556.612 53.82
-116.45 542.212 124.058
-43.6148 553.524 124.169
42.6565 354.519 466.267
0.0053039 399.681 427.412
81.6995 469.489 325.162
42.5282 439.357 378.88
124.198 428.086 371.882
-42.5087 439.3 378.838
-81.6373 469.277 325.03
214.031 516.41 53.82
189.623 520.052 123.473
256.091 488.071 123.173
43.6441 553.698 124.194
116.556 542.587 124.113
73.281 556.833 53.8215
196.984 474.099 255.183
158.944 514.218 193.121
125.507 498.943 256.528
-43.25 510.048 263.49
43.2535 509.949 263.445
0.00636757 538.719 194.1
-190.333 521.942 -16.0959
-256.848 489.436 -15.7261
-43.836 556.363 -16.9129
-117.074 544.922 -16.7833
-199.394 479.547 -150.103
-160.277 518.327 -86.658
-127.131 505.182 -151.679
257.396 490.409 -15.8758
190.629 522.646 -16.1925
127.241 505.544 -151.838
160.46 518.821 -86.7981
199.693 480.176 -150.387
117.176 545.297 -16.8335
43.8609 556.514 -16.9334
-43.1107 358.128 -362.869
0.00494896 404.703 -324.499
43.1279 358.183 -362.939
-83.2975 478.15 -222.68
-43.2021 446.055 -276.209
-126.132 434.446 -268.965
126.24 434.744 -269.201
43.2223 446.138 -276.275
83.3523 478.375 -222.817
0.0065952 543.855 -87.897
43.8932 517.181 -159.015
-43.8668 517.026 -158.947
-302.796 450.974 -59.0275
-325.977 445.82 10.912
-241.067 433.346 -194.795
-273.839 446.537 -129.821
-401.528 351.964 -71.6035
-343.102 402.963 -102.992
-374.561 349.476 -142.964
-69.6886 288.093 -405.521
-113.159 334.321 -367.287
-248.249 271.476 -348.01
-183.737 304.73 -361.979
-203.569 229.79 -393.98
-157.279 374.836 -319.291
-197.412 406.484 -265.732
-455.504 99.9371 -201.253
-418.219 143.189 -247.532
-413.606 73.5763 -271.05
-401.193 278.639 -186.404
-414.394 213.919 -219.082
-446.023 233.542 -144.336
-321.341 156.331 -347.93
-371.194 187.265 -288.361
-318.467 227.505 -320.47
-272.31 373.826 -245.442
-299.018 302.845 -288.796
-342.66 329.81 -218.147
-371.569 406.819 53.8358
-444.203 305.451 -28.8401
-412.619 358.798 10.923
-411.642 358.022 96.6528
-442.215 304.24 136.151
-481.032 30.8543 -158.228
-486.685 100.187 -134.765
-519.466 100.909 10.4365
-508.737 100.843 -61.988
-516.882 30.9011 -18.1426
-483.92 170.321 -105.221
-470.554 234.676 -72.2502
-484.198 99.6607 241.71
-480.177 30.696 265.657
-467.773 233.498 179.152
-479.035 168.901 211.353
-517.429 30.6952 126.013
-504.451 100.119 168.825
-514.961 100.259 96.792
-481.81 241.688 10.3801
-507.948 171.242 53.7957
-480.68 241.195 97.1933
301.233 448.796 166.107
325.458 445.173 96.6901
237.074 426.608 298.294
271.307 442.689 235.691
399.328 350.225 178.559
340.615 400.272 209.462
370.358 345.884 248.394
69.1983 286.17 510.115
112.095 331.351 471.176
246.634 269.835 453.258
182.306 302.474 466.554
202.478 228.652 499.406
155.485 370.761 422.851
194.728 401.267 369.329
455.043 99.7378 308.847
417.222 142.807 354.661
413.341 73.4699 378.634
397.313 276.131 291.908
411.546 212.556 325.092
442.131 231.724 250.418
320.226 155.83 454.34
369.796 186.584 394.911
316.869 226.416 426.412
269.074 369.626 349.763
296.534 300.478 393.821
338.958 326.469 323.052
-69.5395 220.019 542.412
0.00727676 243.781 537.402
-203.937 156.879 524.679
-139.543 189.885 538.116
0.00938887 103.916 579.682
-70.3064 147.267 565.855
-70.5635 74.4374 578.236
-413.049 -12.0783 378.428
-375.097 30.6938 424.638
-275.314 -52.2446 499.275
-327.745 -12.2241 466.284
-321.687 -95.0407 456.153
-327.299 73.556 465.735
-274.263 113.311 497.577
-0.000210118 -184.336 541.724
-70.1517 -160.236 546.475
-70.0823 -228.024 515.86
-70.685 -13.0627 579.121
-70.5568 -86.2525 567.563
0.00875073 -42.6372 580.9
-204.453 -169.214 503.724
-140.51 -129.605 541.378
-205.031 -96.1557 527.11
-211.468 74.3069 537.136
-211.761 -12.9448 537.766
-141.277 30.7214 565.347
-485.346 -38.46 242.169
-455.373 -38.441 309.05
-516.48 -38.8274 97.028
-505.559 -38.7683 169.142
-446.791 -172.457 252.554
-481.843 -108.324 212.496
-469.961 -173.002 180.038
-454.64 -38.1702 -200.865
-483.463 -38.0696 -133.594
-468.839 -172.498 -71.7878
-480.69 -107.952 -104.152
-444.086 -171.225 -143.454
-505.732 -38.789 -61.2953
-516.539 -38.8733 10.7668
-325.815 -384.15 96.8486
-371.715 -345.503 53.8821
-326.089 -384.488 10.9358
-442.01 -242.667 136.315
-411.747 -296.652 96.7669
-401.859 -290.766 179.632
-400.747 -289.877 -71.3431
-412.074 -296.906 11.0124
-442.878 -243.178 -28.5742
-504.907 -108.878 53.8756
-480.248 -179.584 10.5433
-479.81 -179.395 97.23
-375.801 30.7895 -317.527
-413.17 -11.9487 -270.709
-275.378 113.714 -391.567
-328.266 73.7497 -359.133
-320.213 -94.2811 -346.538
-327.915 -12.1243 -358.692
-274.732 -51.9353 -390.516
0.00550975 244.974 -432.077
-69.9148 221.046 -437.049
-70.6374 74.5413 -470.774
-70.5315 147.672 -459.495
0.008302 104.062 -472.384
-140.266 190.753 -432.722
-204.932 157.533 -419.09
-69.1199 -224.284 -401.548
-69.5489 -158.462 -434.52
0.00640527 -182.083 -429.236
-204.208 -95.5139 -417.441
-139.647 -128.455 -430.573
-202.406 -167.06 -391.448
0.00680832 -42.3035 -471.086
-70.3007 -85.7097 -457.792
-70.5217 -12.8918 -469.906
[...]
POINT_DATA 642
SCALARS Mean_Curvature double 1
LOOKUP_TABLE default
0.00423958
0.00424286
0.00431978
0.00431082
0.00404306
0.00430421
0.00367573
0.00424905
0.00430619
0.00426
0.00428095
0.00420485
0.00376986
0.00371747
0.00311521
0.00317502
0.00364156
0.00374682
0.00375038
0.0037262
0.00370547
0.00353078
0.00371699
0.0035308
0.00369202
0.00382096
0.00371007
0.00374615
0.00374584
0.00380525
0.00371014
0.00371552
0.00391436
0.0037162
0.00375271
0.00373182
0.00353175
0.00373349
0.00373524
0.00379291
0.00379048
0.00365939
0.00373132
0.00349327
0.00369169
0.00372206
0.00374006
0.00375653
0.00371171
0.00373405
0.00371149
0.00378763
0.00378032
0.00369935
0.00329016
0.00376284
0.00379271
0.00371924
0.00376437
0.00373073
0.00375917
0.00375981
0.00370765
0.00365148
0.00370272
0.00371797
0.00377338
0.00367087
0.00368559
0.00388612
0.00372331
0.00373619
0.00375387
0.00364078
0.00393583
0.00419835
0.00375736
0.00324089
0.00372607
0.00371381
0.00374035
0.00371182
0.0037429
0.00370563
0.00372849
0.00373236
0.00380428
0.00370245
0.00352577
0.00359862
0.00374698
0.00332824
0.00369653
0.00350767
0.00373433
0.00324875
0.00375153
0.00373894
0.00377029
0.0037528
0.00369887
0.00374591
0.00361022
0.00375706
0.00369453
0.00369018
0.00367013
0.00369219
0.00370651
0.00370307
0.00373238
0.0037014
0.00309132
0.00369336
0.00396064
0.00369899
0.00372916
0.00380381
0.00374176
0.00375105
0.0038477
0.00407851
0.00377369
0.00374111
0.00355343
0.00375803
0.00409165
0.00388937
0.00375138
0.00373996
0.00373922
0.00377148
0.00373765
0.00358661
0.00375227
0.00374344
0.00373507
0.00359025
0.00379604
0.00340814
0.00378806
0.00374587
0.00382424
0.00395
0.00400426
0.00340514
0.0038149
0.00363315
0.00374088
0.00373923
0.0037646
0.00374516
0.00377109
0.00378994
0.00374535
0.00371602
0.00376645
0.00374645
0.00373492
0.00307002
0.00378528
0.00375094
0.00373501
0.00373068
0.00369207
0.0036464
0.00381069
0.00376196
0.00388755
0.00390251
0.00316519
0.00372559
0.0037354
0.00372761
0.00372858
0.00372967
0.00372586
0.00322559
0.00375503
0.0035046
0.00372662
0.00372496
0.00371627
0.003762
0.00373383
0.00380339
0.00372094
0.00372772
0.00372528
0.00356587
0.00373257
0.00368592
0.00372048
0.00369986
0.00380664
0.00375412
0.00377789
0.0037831
0.00375117
0.00371822
0.00376015
0.00326631
0.00379078
0.00378974
0.00380383
0.00324558
0.00376381
0.00376608
0.00370581
0.00376398
0.00376862
0.00376798
0.00387657
0.00378952
0.00381351
0.00378433
0.00371225
0.00363233
0.00383232
0.00369116
0.00380232
0.00381988
0.00374156
0.00376232
0.00375202
0.00377264
0.00382992
0.00374155
0.00374231
0.00374114
0.00381101
0.00380653
0.00372004
0.003689
0.00371347
0.00376052
0.0037123
0.00374245
0.00373858
0.00370601
0.00375977
0.00364024
0.00373486
0.00372603
0.00368455
0.00375003
0.00369158
0.00367615
0.00368991
0.00370299
0.00373156
0.00366387
0.00372016
0.00365817
0.003691
0.00371227
0.00371747
0.00370232
0.00352045
0.00356767
0.00372638
0.00372433
0.00378824
0.00366172
0.00374031
0.00360803
0.00364584
0.00368716
0.00369427
0.00372637
0.00375543
0.00379208
0.00377162
0.00374983
0.00373493
0.00383776
0.00370736
0.00416564
0.00390198
0.00295947
0.00385207
0.00363559
0.00380195
0.00370603
0.00383547
0.0032854
0.003679
0.00328071
0.00291668
0.00371383
0.00403679
0.00368998
0.00371551
0.00371208
0.00310377
0.00394257
0.00385781
0.0039062
0.00342825
0.00370659
0.00372511
0.00373008
0.00373179
0.00372239
0.00373674
0.00377864
0.00372327
0.00372868
0.00371227
0.00360252
0.00374141
0.00351257
0.00371961
0.00372879
0.00372957
0.00376267
0.00373673
0.00368489
0.00373319
0.00373722
0.00371887
0.00371347
0.0037643
0.00372891
0.00375567
0.00357368
0.00368404
0.00375958
0.00357791
0.00364813
0.00372163
0.00372723
0.00370191
0.00377988
0.00380938
0.00382735
0.0035687
0.00377089
0.00387301
0.00367305
0.0036268
0.00371914
0.00365489
0.00375429
0.0036954
0.00369278
0.00369224
0.00348541
0.003998
0.00370735
0.00397009
0.00381351
0.00318341
0.00379819
0.00371198
0.00376927
0.00363771
0.00369455
0.00357543
0.00376045
0.00374567
0.00323059
0.00366194
0.00398214
0.00375098
0.00375585
0.00371292
0.0036264
0.00379996
0.0036774
0.00376777
0.00374296
0.00376532
0.00372193
0.00381031
0.00374541
0.00374985
0.0036243
0.00370636
0.0037735
0.00370916
0.00372093
0.00373178
0.00374586
0.00346805
0.00379445
0.00379177
0.00375263
0.00375447
0.00375069
0.00369079
0.00372009
0.00370933
0.00373125
0.00373626
0.00375408
0.00371706
0.00366403
0.00372822
0.00370912
0.00370074
0.00369589
0.00367418
0.00369812
0.00377488
0.00371781
0.00370574
0.00376278
0.00369955
0.00373282
0.00378302
0.00361781
0.00366458
0.00365033
0.00361386
0.00372499
0.00375373
0.00375911
0.00372869
0.00368853
0.00371845
0.0036968
0.0035929
0.00396419
0.0033384
0.00363324
0.00399398
0.00404674
0.00365713
0.00371975
0.00374024
0.00359533
0.00385681
0.00354711
0.00379267
0.00368511
0.00378968
0.00387009
0.0038089
0.00369074
0.00380047
0.00373327
0.00385637
0.00374559
0.00374877
0.00374549
0.00379042
0.00375128
0.00374888
0.00373561
0.0037292
0.00374094
0.00334563
0.0037743
0.00365563
0.00396381
0.00368777
0.00326579
0.00344746
0.00379451
0.00352404
0.0037495
0.00379441
0.00373979
0.00380712
0.00375247
0.00377605
0.00335514
0.00330029
0.00339394
0.00329944
0.00373858
0.00375503
0.00394054
0.00369446
0.00371775
0.00368357
0.00384607
0.00375389
0.00374719
0.00371316
0.0037889
0.0037474
0.00375032
0.00375107
0.00374772
0.00375937
0.00374911
0.0037494
0.00374734
0.00376339
0.00371794
0.00373607
0.00356187
0.00374393
0.00374701
0.00373593
0.00374408
0.00373666
0.00372289
0.00377179
0.0036019
0.00371109
0.00372936
0.00375133
0.00374359
0.00373829
0.0037454
0.00374187
0.00374423
0.00373129
0.00349371
0.00369369
0.00335057
0.00358016
0.00372887
0.00374615
0.00374579
0.00379202
0.00369242
0.00373853
0.00380062
0.00353628
0.00371968
0.00380428
0.00356246
0.00325296
0.00373623
0.00380881
0.00373574
0.00377321
0.00381172
0.00375361
0.0036765
0.00322943
0.00379709
0.00339352
0.0035475
0.00330895
0.00316058
0.00383044
0.00360547
0.00370503
0.00371927
0.00392555
0.00372983
0.00358657
0.00343294
0.00363997
0.00358621
0.00390684
0.0035569
0.00363989
0.0036381
0.00361532
0.00362628
0.00383157
0.00371213
0.00371679
0.00370607
0.00364187
0.00357207
0.00373448
0.00376638
0.00373844
0.00371487
0.00371962
0.00369683
0.00372996
0.00376046
0.00396334
0.00374807
0.00373269
0.00378688
0.00380799
0.00374013
0.00372825
0.00373647
0.00374638
0.00373906
0.00376871
0.00371978
0.00379783
0.00365023
0.00388074
0.00373125
0.00371773
0.00371513
0.00368237
0.00374588
0.00374747
0.00355695
0.00334388
0.00375031
0.00373756
0.00374696
0.00374423
0.00373908
0.00366705
0.00329772
0.00355891
0.00367736
0.00371917
0.00373816
0.00373613
0.00378452
0.0037636
0.00374432
0.00374043
0.00376048
0.00373486
0.00378496
0.00373286
0.00372177
0.00374699
0.00374888
0.00371155
0.00373896
0.00372399
0.00373001
0.00380538
0.00374575
0.00373437
0.00374383
0.00374696
0.00331141
0.00368472
0.00370654
0.00358893
0.003592
0.00379166
0.00377362
0.00377306
0.00382131
0.0037437
0.00381268
0.00374871
0.00375131
0.00372271
0.00398169
0.00376401
0.00392586
SCALARS CoVolArea double 1
LOOKUP_TABLE default
4393.12
4399.54
4399.53
4407.19
4433.48
4375.7
4373.05
4411.57
4382.52
4376.42
4372.28
4366.3
5642.21
5668.19
5624.33
5628.49
5708.53
5725.96
5719.82
5701.12
5687.84
5621.86
5675.98
5642.76
5716.46
5716.28
5669.4
5692.05
5708.62
5673.61
5695.79
5706.95
5705.87
5722.66
5746.78
5742.75
5702.11
5696.8
5702.35
5679.61
5684.07
5634.21
5377.29
5896.82
5372.82
5370.81
5904.94
5344.6
5352.97
5907.89
5377.7
5934.91
5410.08
5354.81
5889.81
5415.77
5937.69
5378.79
5992.28
5416.58
5425.89
5995.31
5423.75
5993.87
5425.96
5969.43
5399.95
5415.48
5973.36
5384.8
5958.82
5391.19
5940.17
5349.84
5938.48
5908.27
5340.36
5897.75
5381.22
5381.66
5914.84
5356.23
5914.9
5380.55
5961.12
5399.64
5392.95
5954.32
5427.64
5977.51
5440.7
5904.2
5382.44
5356.51
5905.01
5398.13
5931.13
5395.89
5962.73
5379.29
5418.19
5976.58
5379.34
5963.09
5395.39
5980.59
5418.61
5406.05
5978.86
5400.28
5967.38
5390.09
5409.72
6001.21
5432.73
5403.63
5990.25
5396.24
5455.27
6013.65
5444.49
6000.47
5414.66
5452.57
6014.32
5409.96
5998.1
5425.02
5975.05
5417.07
5409.38
5972.26
5389.79
5961.74
5387.29
5965.57
5408.14
5382.52
5948.78
5368.56
5940.54
5388.52
5946.7
5362.63
5923.73
5922.69
5355.6
5982.63
5962.89
5966.91
5993
6006.69
5980.93
5940.54
5954.04
5928.29
5969.31
5966.35
5980.3
5900.59
5936.77
5944.05
5291
5423.34
5290.21
5834.77
5432.89
5326.55
5314.16
5427.73
5822.26
5270.78
5407.31
5258.68
5851.43
5432.92
5335.15
5301.46
5418.9
5827.98
5268.67
5414.5
5280.69
5825.07
5424.6
5300.51
5338.64
5437.35
5852.98
6520.81
6532.53
6519.21
5440.68
5305.8
5840.5
5447.58
5375.07
5468.82
5888.37
5269.54
5402.97
5823.27
5412.84
5303.67
5411.89
5821.05
5314.19
5447.74
5297.18
5889.86
5473.15
5377.71
5318.57
5453.02
5844.15
6534.92
6535.8
6562.76
5466.96
5310.66
5918.62
5496.61
5383.74
5498.56
5922.81
5320.21
5474.59
5927.39
5504.48
5391.32
5500.79
5920.04
5324.62
5475.39
5325.55
5923.37
5501.06
5386.87
5390.84
5502.32
5926.4
6626.09
6628.71
6626.99
5456.66
5302.34
5909.14
5485.44
5359.7
5477.58
5893.28
5320.69
5468.45
5899.76
5486.81
5373.79
5492.15
5911.33
5278.19
5434.5
5284.45
5888.92
5464.87
5352.47
5361.6
5465.9
5892.54
6602.75
6596.36
6595.11
5440.31
5881.05
5464.68
5452.8
5856.75
5264.8
5420.87
5844.55
5438.59
5301.15
5456.02
5877.99
5391.27
5258.1
5841.49
5411.83
5290.44
5405.06
5825.95
6568.79
6553.39
6555.39
5428.12
5296.23
5825.44
5430.77
5328.57
5434.9
5835.29
5282.37
5417.53
5860.65
5442.71
5344.62
5428.85
5830.33
5270.62
5417.83
5281.98
5834.98
5429.34
5309.01
5343.68
5442.45
5860.47
6525.45
6541.95
6527.5
5439.33
5290.22
5878.56
5462.11
5373.51
5474.74
5905.86
5280.64
5429.53
5898.34
5465.57
5369.47
5454.93
5876.01
5341.05
5483.66
5347.18
5912.89
5496.57
5386.1
5394.77
5500.42
5910.41
6587.59
6597.41
6601.81
5407.14
5274.29
5819.82
5412.87
5356.2
5438.64
5865.19
5265.25
5396.42
5854.04
5423.4
5326.91
5410.88
5820.83
5304.03
5442.5
5304.89
5868.1
5457.26
5360.38
5348.9
5458.44
5865.86
6525.97
6546.35
6544.63
5437.4
5279.21
5898.55
5470.72
5342.04
5464.56
5885.17
5320.45
5466.46
5908.23
5490.47
5380.14
5488.57
5904.73
5279.14
5437.23
5285.26
5885.02
5464.18
5342.47
5367.07
5472.14
5901.12
6601.93
6602.82
6594.78
5471.36
5322.22
5918.64
5496.85
5378.22
5491.67
5906.53
5309.14
5466.25
5901.94
5486.23
5366.42
5495.26
5918.3
5295.76
5443.7
5288.33
5900.35
5474.18
5368.62
5359.06
5472.25
5897.42
6612.19
6604.51
6605.26
5314.39
5474.65
5320.07
5919.74
5500.93
5373.5
5405.54
5512.04
5941.13
5292.31
5452.46
5286.95
5924.29
5490.49
5378.1
5368.76
5487.74
5915.08
5354.56
5502.98
5349.24
5947.62
5528.06
5417
5399.27
5522.7
5935.65
6629.92
6636.79
6642.87
5468.08
5318.61
5941.73
5508.99
5372.72
5490.96
5909.22
5353.13
5503.08
5944.47
5526.31
5413.3
5527.73
5947.02
5311.29
5461.66
5310.93
5908.03
5487.62
5370.68
5401.01
5504.54
5938.89
6644.35
6642.98
6631.83
5468.01
5319.84
5903.52
5489.26
5375.8
5490.22
5905.09
5311.38
5461.69
5900.85
5484.92
5369.16
5485.46
5902.4
5282.12
5436.17
5280.93
5897.1
5468.63
5361.66
5357.74
5467.33
5894.33
6601.71
6598.44
6600.01
5463.6
5315.43
5900.01
5485.46
5362.82
5480.89
5890.75
5280.95
5431.43
5868.86
5454.1
5346.88
5463.93
5892.48
5277.79
5426.2
5290.26
5878.61
5448.02
5338.89
5349.43
5450.22
5867.07
6589.01
6573.71
6584.16
5454.61
5881.23
5472.93
5470.99
5883.68
5277.63
5411.92
5837.98
5426.23
5311.08
5438.78
5868.39
5421.72
5271.43
5880.34
5453.72
5305.44
5428.41
5837.52
6563.23
6548.08
6561.87
5484.49
5915.24
5503.22
5498.51
5916.14
5440.09
5884.55
5464.34
5474.79
5904.93
5441.65
5909.13
5477.57
5466.85
5885.66
6604.83
6596.04
6608.28
5464.12
5935.17
5503.97
5489.7
5909.27
5499
5928.99
5517.2
5523.2
5941.74
5439.76
5904.39
5475.97
5480.12
5916.24
6634.89
6628.26
6620.86
5427.93
5885.32
5458.76
5448.65
5861.36
5453.44
5876.68
5469.13
5476.12
5891.39
5415.89
5858.08
5440.73
5437.61
5864.59
6578.12
6570.24
6562.2
5447.04
5891.36
5472.39
5478.54
5904.62
5438.74
5903.41
5473.76
5466.91
5889.44
5468.3
5909.29
5491.74
5492.63
5910.79
6599.97
6606.91
6607.29
5405.14
5830.34
5414.87
5417.26
5838.53
5427.12
5883.43
5458.12
5441.08
5845.23
5444.58
5858.47
5456.55
5469.03
5886.57
6548.26
6571.33
6553.15
SCALARS SignedDistance double 1
LOOKUP_TABLE default
340.702
332.607
308.617
290.941
249.053
366.943
377.567
280.406
357.202
364.689
381.656
387.954
428.232
365.089
440.162
432.483
325.432
260.86
273.141
304.407
328.14
436.699
351.752
424.446
295.222
282.077
364.23
353.705
294.57
359.995
319.839
292.922
327.916
280.891
231.923
240.194
306.017
311.154
303.125
349.729
342.669
413.083
380.747
435.694
395.211
373.186
410.219
421.329
406.218
405.18
363.328
387.819
328.108
402.198
432.569
319.062
384.534
389.191
268.69
293.101
277.18
263.748
273.059
264.944
268.776
298.877
321.68
287.53
295.13
362.965
322.923
336.829
366.814
429.409
384.029
436.377
426.889
429.304
375.84
355.857
394.364
401.417
395.155
356.432
323.201
323.889
342.994
332.252
275.186
294.079
256.634
412.39
375.059
406.6
407.864
347.352
369.454
328.212
318.021
365.273
281.075
286.164
365.69
318.645
332.783
283.489
281.535
315.607
286.139
316.877
310.874
351.578
326.199
266.634
278.467
323.418
286.515
347.77
219.434
235.902
250.884
272.313
287.797
223.795
241.539
294.041
274.669
290.366
290.757
282.711
296.925
291.407
342.594
323.495
343.105
309.857
305.091
361.015
341.59
388.518
362.464
348.042
346.844
405.247
385.615
391.243
399.619
283.467
317.197
313.738
285.594
249.235
308.8
352.217
328.552
377.477
305.45
313.919
280.362
427.199
380.086
363.138
359.651
386.414
366.887
431.121
408.556
403.746
424.018
415.803
439.914
379.864
396.932
404.171
387.266
391.203
368.261
438.592
415.367
433.369
386.871
384.825
364.794
425.37
405.547
425.153
363.398
384.072
384.68
431.203
407.298
428.586
364.206
336.615
420.714
393.962
322.163
357.438
354.479
385.001
401.881
431.777
419.012
418.677
421.054
435.769
325.334
354.93
359.839
354.553
351.307
319.292
418.42
386.671
415.624
417.829
417.313
388.278
306.237
315.37
291.905
294.993
279.683
278.218
265.537
303.412
293.133
256.111
265.897
264.6
287.378
292.302
275.706
269.94
273.89
261.975
266.092
271.825
263.669
265.493
257.571
272.209
260.469
259.882
307.999
328.98
288.181
295.038
321.369
306.946
311.271
283.665
281.974
303.482
292.016
294.012
283.014
285.059
379.792
358.3
357.679
323.115
339.086
340.519
318.776
337.685
320.099
296.18
307.784
307.559
348.772
341.285
342.316
372.029
396.669
405.269
397.419
425.144
407.976
438.808
370.64
349.88
423.037
406.7
428.177
441.217
433.948
441.409
444.878
369.075
408.034
397.576
381.303
353.869
432.047
411.347
399.731
404.156
426.064
361.631
379.287
372.439
374.618
352.46
397.74
415.82
382.73
378.763
360.372
417.683
398.545
420.073
353.218
375.14
372.743
416.582
394.019
417.428
343.415
345.359
343.872
342.699
302.447
321.758
301.942
367.498
359.114
318.207
339.001
317.526
352.056
347.282
271.404
273.8
247.395
282.484
282.158
269.496
273.422
281.807
295.395
326.244
311.329
304.113
405.64
384.269
423.89
420.264
363.878
401.249
391.371
401.53
423.677
385.182
406.187
384.592
425.52
425.508
326.857
334.596
315.777
381.617
357.877
349.063
345.108
347.501
363.173
412.575
386.743
397.078
347.493
372.178
306.721
324.772
361.143
340.336
336.874
284.556
283.609
287.793
282.395
280.808
284.915
291.337
370.754
347.699
355.787
337.289
341.266
361.658
312.405
324.45
305.57
298.304
298.133
314.996
276.472
280.992
272.778
274.196
285.307
282.446
291.496
322.091
298.036
300.044
296.411
315.237
280.384
273.372
334
335.966
353.549
306.177
320.484
303.646
332.38
329.308
311.762
283.557
295.038
295.081
306.824
301.581
301.802
294.012
293.888
326.67
250.247
266.23
245.177
344.289
332.182
358.777
279.144
304.305
300.088
336.543
315.945
303.049
231.622
228.102
245.607
227.789
222.648
220.681
264.206
238.037
254.857
272.645
258.562
246.205
298.187
285.793
246.593
272.366
297.007
300.777
310.004
229.822
232.692
232.526
225.479
227.689
227.338
229.485
298.394
307.245
316.296
308.448
303.814
296.965
261.868
279.017
251.696
249.533
247.679
283.142
279.262
282.147
296.898
285.096
290.208
282.207
292.566
298.573
290.078
297.565
290.366
301.538
288.59
295.609
365.865
354.123
364.523
312.681
333.115
320.682
325.195
331.521
313.098
301.735
304.087
305.861
290.019
294.718
302.838
293.496
321.596
304.425
323.216
368.731
361.193
364.967
361.172
354.34
338.677
320.013
378.449
373.697
351.155
350.468
375.578
366.433
347.562
371.426
369.749
323.309
349.134
333.963
311.54
340.769
323.476
334.201
358.486
378.866
399.504
403.655
404.504
414.846
386.263
364.825
378.169
381.384
365.036
373.696
411.33
397.954
397.586
363.299
391.537
375.842
273.526
287.171
277.476
274.946
274.913
340.12
333.32
336.305
320.218
304.087
339.659
295.645
316.821
334.358
332.291
297.438
313.527
293.077
317.131
258.82
285.153
315.218
318.477
234.568
268.11
248.323
232.256
239.264
356.048
327.241
342.359
327.375
298.809
262.101
275.941
292.886
364.077
329.988
345.141
368.119
374.383
309.593
344.819
325.858
310.574
316.865
393.302
381.967
387.249
391.708
369.283
338.216
352.209
363.06
328.053
325.429
325.139
307.745
294.078
345.413
302.595
322.07
336.483
329.727
280.738
283.268
279.712
277.891
282.712
306.78
292.994
289.327
398.746
420.767
416.434
417.974
425.92
377.759
347.462
362.736
399.854
417.402
343.201
393.396
367.457
337.297
337.403
404.369
367.455
396.1
