# vtk DataFile Version 4.2
vtk output
ASCII
DATASET POLYDATA
POINTS 642 double
-140.081 266.778 5.93534
138.027 276.168 2.75022
-138.998 -231.975 43.6972
153.385 -239.972 44.2039
1.36405 -177.197 330.176
2.7586 123.002 289.48
2.98401 -88.5961 -135.064
2.18001 205.21 -208.558
198.178 57.0058 -118.523
194.497 6.4428 213.675
-174.027 55.7952 -118.196
-174.33 10.5452 210.954
-174.811 159.972 67.0976
-109.171 77.2177 280.072
-45.0282 176.954 136.292
53.1181 179.39 142.081
1.39371 317.602 -10.7228
94.8764 309.255 -110.06
-83.5559 302.94 -106.957
-130.986 123.935 -200.767
-216.574 191.518 -43.4674
-184.757 24.9598 41.9448
118.908 81.192 286.102
156.054 143.494 77.1848
-133.457 -99.1164 303.731
5.75309 5.10759 369.893
-179.687 -134.517 -19.4
-169.823 -143.131 189.169
4.04989 55.4292 -250.637
-110.355 -9.6164 -181.751
211.005 195.962 -52.3849
140.523 126.583 -204.476
191.883 -146.102 193.949
147.574 -100.264 308.26
104.55 -254.343 245.255
-97.4807 -250.955 244.019
0.476081 -262.802 42.9587
-88.7937 -221.423 -73.4492
99.7141 -224.08 -75.5286
119.898 -12.1995 -184.782
193.578 -145.137 -21.9849
204.176 9.14953 56.8847
-169.172 218.206 31.9449
-127.651 158.706 89.4196
-112.768 251.408 38.0468
-150.245 44.2961 250.945
-135.451 90.9861 216.18
-160.417 61.0837 184.347
-26.1431 146.622 242.542
-81.958 123.344 242.6
-54.8539 104.877 293.466
-37.226 277.783 39.96
-63.4372 311.076 -5.78272
35.0741 149.053 242.238
5.35444 179.832 148.444
75.8778 315.337 -6.11358
47.3673 278.356 40.0341
109.865 256.621 35.549
-49.7589 339.657 -51.8968
-111.867 299.351 -47.5968
119.715 313.584 -52.0695
58.1245 341.204 -52.1309
-45.4756 262.139 -168.334
1.97902 313.634 -114.792
52.0112 263.8 -169.939
-167.924 247.463 -79.2806
-187.361 238.248 -20.1721
-74.461 166.02 -216.27
-115.227 220.125 -156.17
-197.643 161.275 -70.3015
-184.438 175.989 -112.48
-165.771 85.4633 -158.819
-202.931 194.755 1.30389
-172.316 74.7732 -28.8119
-208.448 166.22 -31.2265
-164.93 153.783 44.3431
-177.801 6.51325 143.351
115.093 166.169 105.089
169.836 226.497 26.9675
64.771 106.211 296.724
90.2069 126.925 247.039
180.979 56.1207 187.641
145.468 91.9709 225.173
163.506 45.6291 256.582
-57.1595 48.708 333.661
3.98224 72.3657 336.3
-159.853 -48.4763 260.854
-124.638 10.2412 302.146
2.59939 -57.0075 362.414
-62.5501 -33.8959 347.181
-81.0463 -144.988 333.12
-187.272 -54.6907 101.821
-173.527 -74.2534 210.347
-163.952 -54.5703 -61.4701
-188.437 -71.9357 12.3047
-154.841 -168.416 118.578
-184.507 -141.212 35.4344
-168.486 -189.979 6.0794
-132.882 51.5043 -204.18
-156.977 22.2277 -149.719
3.2296 113.807 -250.745
-75.4103 90.0824 -243.036
-69.7331 -55.2283 -170.309
-70.6448 13.7897 -227.24
2.06972 -8.58558 -223.004
122.785 225.827 -161.833
80.2617 168.668 -218.049
189.643 243.291 -22.3956
172.974 255.953 -84.1401
184.633 83.4017 -164.059
188.962 176.018 -120.562
202.089 134.532 -79.1356
173.105 -178.515 118.404
173.116 -206.728 215.373
129.275 -244.359 175.973
177.154 -48.7929 266.292
191.189 -130.879 251.539
196.331 -78.6743 210.684
63.8497 -226.978 311.285
135.933 -190.188 299.886
88.1247 -149.584 334.133
60.2434 -268.946 186.956
95.1935 -265.192 43.333
-58.2313 -225.245 308.794
1.51423 -258.418 248.013
-84.7594 -263.341 43.9262
-55.51 -267.59 185.452
-117.835 -241.659 171.905
65.3399 -262.571 -21.9237
134.099 -247.393 -22.129
-121.776 -241.016 -19.8504
-59.6115 -262.498 -21.5379
61.4468 -178.759 -108.48
0.847021 -221.658 -75.211
-54.4321 -177.915 -109.072
163.401 -194.401 -54.8221
189.266 -199.064 3.63083
75.7603 -57.3825 -172.216
112.046 -161.506 -106.873
182.884 -47.037 -62.8139
163.355 -111.035 -77.7364
172.604 22.0744 -153.617
199.032 -148.31 35.9933
186.591 57.9409 -47.3342
204.345 -81.5392 14.7409
202.43 -57.8055 105.552
199.87 10.4031 154.097
67.9177 -28.9744 355.782
134.821 9.67571 309.256
65.0998 48.3075 339.594
-154.901 -197.153 216.514
-127.446 -185.224 293.953
-169.436 -132.732 246.647
-101.667 -156.326 -104.76
-147.324 -187.718 -50.1559
-153.495 -103.123 -75.1341
145.065 51.6066 -207.996
75.6391 12.9005 -229.282
78.0294 90.0137 -246.605
191.645 90.5784 53.9972
209.87 157.525 -26.1758
200.673 197.979 -2.74524
-157.011 243.54 19.7814
-142.808 237.257 36.3019
-126.051 260.036 25.1875
-150.439 152.333 73.231
-156.68 211.927 45.2864
-176.92 194.352 40.6385
-85.7245 235.575 55.19
-129.263 229.044 48.75
-88.7177 168.226 112.198
-164.367 27.772 231.313
-159.446 51.2025 219.045
-169.204 33.8446 201.746
-125.708 84.4929 249.954
-143.91 69.5118 236.226
-131.935 60.8832 267.27
-146.707 118.653 123.43
-149.613 77.5324 200.31
-137.143 109.432 155.074
-12.0299 136.608 266.438
-40.8438 127.794 269.591
-23.5497 114.974 293.327
-66.2504 140.88 218.981
-54.7712 136.091 244.352
-38.0139 152.91 219.008
-82.9132 92.2624 288.969
-70.614 116.08 268.532
-95.9042 103.281 263.22
-121.833 118.888 175.9
-111.816 108.476 230.451
-100.199 127.929 201.271
-86.7758 278.659 17.4586
-99.7124 289.194 -1.72161
-43.0943 246.346 66.7232
-68.0753 266.275 36.8963
-40.6053 319.114 -7.09182
-51.0335 297.569 15.2664
-26.5327 301.514 16.3942
18.7739 137.426 266.652
3.59133 150.092 244.592
32.9059 179.752 148.592
19.5115 160.2 221.269
47.9759 157.183 218.092
-10.0204 158.923 221.914
-19.7836 179.911 145.679
102.627 300.255 -3.59644
90.8198 288.592 15.5537
124.662 268.733 20.9311
32.5843 300.264 14.8924
63.881 300.265 14.8491
49.8276 320.797 -8.41079
83.6078 235.928 63.321
73.5333 272.894 36.353
50.66 246.3 70.0891
-13.693 246.984 78.2911
20.0118 246.104 79.9515
0.927672 277.437 45.6651
-85.8588 311.788 -29.2468
-130.084 284.527 -21.4034
-27.8407 333.437 -32.3756
-56.1355 328.91 -32.4974
-98.89 308.524 -75.2635
-76.2953 327.966 -53.0009
-68.4517 330.065 -76.5295
127.407 296.799 -28.46
96.8973 320.581 -31.3127
79.0896 334.346 -78.1745
90.4178 333.434 -53.266
111.034 318.1 -77.07
67.8965 331.826 -32.2591
33.9592 333.768 -32.9651
-22.3073 236.428 -192.223
2.00596 264.959 -173.794
27.0343 237.319 -193.183
-48.933 315.024 -115.777
-25.8434 291.423 -143.968
-65.5065 286.249 -137.694
75.422 290.029 -139.614
30.7889 291.231 -143.841
56.5096 316.694 -116.004
2.48535 338.759 -51.9381
33.3271 337.181 -81.4477
-27.791 336.675 -81.2147
-159.719 268.588 -30.793
-166.241 254.72 -8.65844
-125.972 276.229 -92.7207
-143.937 276.145 -61.2067
-206.923 214.904 -31.2313
-182.075 245.844 -44.8754
-196.864 218.073 -61.3051
-38.649 187.303 -213.552
-58.8361 219.518 -193.876
-122.771 171.778 -179.543
-92.5411 195.379 -189.635
-105.28 144.194 -212.597
-79.2706 244.896 -166.151
-98.8426 262.545 -132.536
-179.274 98.5032 -97.673
-179.409 117.232 -112.696
-173.951 68.961 -136.716
-203.092 185.976 -79.1503
-193.851 169.053 -89.794
-209.599 182.717 -53.5899
-150.624 104.557 -182.111
-170.637 134.018 -133.699
-153.653 147.607 -156.374
-147.068 238.447 -117.856
-156.991 196.788 -136.683
-182.801 210.558 -99.8759
-179.551 230.755 5.65656
-214.151 193.389 -21.9237
-201.912 210.859 -8.40767
-190.413 203.762 20.9945
-187.303 188.902 28.5636
-176.359 64.2194 -92.9135
-188.679 129.74 -54.9993
-209.95 125.667 -10.2536
-211.043 137.585 -18.2236
-196.51 58.8682 20.5899
-210.379 173.407 -33.6719
-213.934 182.879 -32.4703
-170.226 36.1158 174.244
-175.755 10.9243 189.842
-178.411 167.863 56.7865
-160.155 87.2707 117.757
-185.727 5.70963 86.9109
-173.31 48.1507 111.137
-182.626 77.0211 28.36
-209.748 186.97 -20.5716
-201.81 168.024 -15.0488
-199.251 194.727 11.3988
144.441 243.008 34.0364
159.162 248.592 18.5878
83.1283 174.213 126.182
124.712 230.847 51.2212
173.001 207.969 31.3455
153.937 221.846 41.3632
139.681 156.533 86.994
31.3302 115.135 294.284
50.2301 129.182 270.904
105.336 106.535 268.833
80.4613 118.512 272.264
92.4824 95.1667 293.972
64.2384 139.574 245.527
72.8504 146.639 221.108
190.211 31.9701 201.243
174.753 50.8142 222.609
181.287 24.7684 235.682
151.933 101.176 179.655
164.229 75.7365 206.681
165.646 86.9493 160.039
142.846 64.8875 273.469
155.264 71.5549 242.992
135.671 87.7338 257
103.992 132.967 211.954
119.966 111.398 238.438
130.899 117.65 196.151
-24.6399 91.4099 316.82
2.99957 101.156 313.775
-86.7144 66.4302 307.794
-58.0308 79.3195 315.035
5.04636 38.1506 356.015
-25.1987 59.815 339.025
-23.6788 26.7265 356.197
-168.327 -17.3601 237.261
-157.282 9.00134 257.355
-128.727 -43.2177 302.473
-145.01 -17.9557 281.512
-151.13 -74.2416 283.369
-139.703 30.1402 277.785
-119.601 46.3339 292.897
-1.35143 -123.223 335.42
-43.9019 -107.952 339.663
-49.6534 -162.332 336.271
-22.2033 -8.35458 367.138
-28.4857 -43.9288 359.589
5.6238 -17.8844 375.705
-109.422 -123.809 321.071
-77.059 -90.6032 337.426
-103.125 -71.0198 326.691
-93.2995 30.7602 321.268
-97.9687 -13.1863 327.545
-57.7337 10.6901 347.72
-176.557 -21.3148 178.061
-175.077 -29.812 209.295
-190.923 -20.392 75.4068
-186.767 -21.4243 118.77
-171.94 -116.765 201.918
-175.135 -65.249 164.973
-173.871 -99.9853 150.748
-166.23 19.7989 -106.956
-168.421 -1.8946 -54.6385
-185.851 -107.338 -3.03083
-183.49 -75.0496 -12.5817
-176.427 -106.958 -31.2872
-184.204 -24.4263 8.68792
-190.189 -23.8 34.5687
-148.424 -211.875 72.6427
-167.731 -190.055 40.2175
-157.15 -213.383 22.2422
-163.52 -150.752 110
-172.803 -164.181 65.1209
-162.86 -162.023 166
-177.37 -162.303 -7.83139
-180.144 -164.025 22.7739
-185.832 -138.876 9.4523
-189.423 -62.1199 44.8189
-187.963 -109.92 20.9268
-183.79 -99.2624 63.5193
-164.06 52.1999 -158.105
-167.333 37.4143 -134.165
-134.554 86.1539 -205.953
-150.806 68.7147 -185.144
-138.707 10.7571 -167.971
-146.11 36.6329 -179.45
-125.595 21.4769 -194.944
2.24137 155.732 -232.098
-40.4074 140.941 -237.471
-37.1806 71.98 -251.033
-38.6971 101.785 -250.009
4.53237 83.4075 -257.463
-78.0702 124.402 -236.107
-106.592 108.729 -227.127
-51.0804 -68.1129 -158.51
-36.1878 -24.5575 -207.798
2.66243 -30.1705 -202.945
-93.7659 0.570612 -206.289
-67.2431 -13.3516 -208.512
-84.4164 -33.7213 -181.177
2.3813 19.2012 -239.3
-37.5424 1.35803 -228.126
-38.5056 30.8558 -241.81
-108.628 69.6905 -227.874
-75.0542 50.2444 -240.533
-104.167 32.7692 -220.662
65.4408 221.451 -195.633
[...]
POINT_DATA 642
SCALARS Mean_Curvature double 1
LOOKUP_TABLE default
0.0157394
0.0140575
0.0128571
0.0134891
-0.00295986
0.0157697
-0.0141055
0.00315825
0.0245139
0.0138728
0.00884178
0.0192284
0.126761
0.010632
-0.00120013
0.00259343
-0.00316723
0.0149322
0.0110478
0.0111725
0.0517244
-0.0177763
0.0119914
-0.000298789
0.00789718
0.0140641
0.0113831
0.00521348
0.00342142
0.00581472
0.0116413
0.00969784
0.00749867
0.00966704
0.0110338
0.0153448
-0.00154978
0.0144029
0.0151082
0.0060517
0.00712823
-1.7851e-05
0.0127596
-0.0031281
0.00973779
0.0108406
0.00874208
0.00394599
0.00868589
0.0073172
0.0109325
0.00780903
0.0124276
0.00868708
-0.00344987
0.0159645
0.00662299
-0.000895868
0.0313569
0.0071233
0.0214824
0.0263813
0.00894402
0.000407408
0.00876184
0.0108584
0.0181776
0.00721974
0.00309281
0.00460601
0.0164584
0.00936645
0.0940407
-0.0140786
-0.0892113
-0.0237875
-0.000920466
-0.00184027
0.018828
0.011446
0.0073102
0.00838652
0.00593114
0.0104357
0.00842951
0.0115836
0.00302862
0.0105257
0.00735524
0.00456683
0.0109321
0.00433312
0.00111681
-0.000378206
0.00828098
-0.0203715
0.00839816
0.0107935
0.015463
0.0155865
0.00718544
0.0116803
0.0150193
0.0127279
0.00791143
0.00530448
0.00570315
0.0180349
0.0135674
0.0148208
0.00753159
-0.00402142
-0.0164878
0.0198464
0.00711402
0.00350355
0.0187011
0.00399624
0.0150797
0.0130532
0.00908364
0.00779451
0.00832218
0.0150198
-0.00694932
0.0103483
0.007137
0.0120656
0.0105729
0.0156395
0.0153892
0.0133303
0.00701475
-0.00310881
0.00880706
0.0142067
0.0233713
0.0145287
0.0111923
0.0011788
0.0107268
0.0105484
0.00184926
-0.0116046
-0.00252556
-0.000712235
0.00814472
0.00705255
0.00794938
0.00883035
0.0105828
0.012571
0.0157891
0.00872015
0.0108604
0.015762
0.0142325
0.0115524
0.0102722
-0.00088021
0.00866261
0.00743921
0.0136102
0.0128065
0.0146794
-0.0273738
0.00891584
0.0138049
-0.00401747
0.0068058
-0.00407945
0.0107088
0.0111027
0.00981535
0.0107923
0.0115023
0.0108332
-0.0264242
0.0130373
0.00987069
0.00912111
0.00940035
0.00773508
0.00384803
0.00802697
0.00698908
0.010759
0.01063
0.0103511
0.00589345
0.00878468
0.00681279
0.00144038
0.0063794
0.00125874
-9.20794e-05
0.0160033
0.00858442
0.00779035
0.00868469
0.00991087
0.00151696
0.00882006
0.010748
0.00959097
0.00278074
0.0101794
0.00515425
0.0123902
0.000598027
0.0124048
0.0124967
-0.00291651
0.0023956
0.0035564
0.00903587
0.00731608
0.00455885
0.00787945
0.0113446
0.0139915
0.0125911
0.0138291
0.0243002
0.0206903
0.00225461
0.0119244
0.0194602
0.0291036
0.0189267
0.0133099
0.010537
0.00861117
0.00875072
0.00876771
0.0156902
0.00636135
0.0097997
0.0109325
0.00296708
0.01199
0.0125865
0.0138743
0.015597
0.0214246
0.011488
0.00602362
0.0103852
0.0243302
0.0145008
0.0092901
0.00262851
0.0103176
0.00354329
0.00542712
0.00981225
0.00883072
0.00100804
-0.000306673
0.00752697
0.0161387
0.032104
0.00385608
0.00180657
0.00976544
0.00371341
0.00276155
0.0094116
0.00811571
0.013094
0.00832126
0.0626264
0.0155559
0.0272918
0.0336952
0.00476277
-0.0084635
0.0745103
0.021184
0.0378081
0.0196903
0.0487241
0.00300244
0.00909279
-0.0237779
0.00120366
0.00383335
0.00174839
-0.010577
-0.0144872
-0.00938147
-0.038643
0.0142166
0.0149105
-0.000951394
0.00469883
0.00820763
0.00937353
-0.00100402
0.0057223
0.0078882
0.0114513
0.0113684
0.0121149
0.00895803
0.00562653
0.0127957
0.00745921
0.00864381
0.00599717
0.00618938
0.000439759
0.0123709
0.0104426
0.0118522
0.0053916
0.00841648
0.00496538
0.00822885
0.0139146
0.0103947
0.0102026
0.0107637
0.00837204
0.0102753
0.00699747
0.0105356
0.00284375
0.00680262
0.0118388
0.0113314
0.0111419
-0.00499949
0.000274157
0.00890988
0.0160917
0.0065111
0.0281172
0.00751312
0.00734895
0.00848121
0.00922653
0.00782371
0.00962893
0.000422672
0.0069269
0.00833814
0.0080899
0.000899718
-0.00242339
0.00060166
0.00592818
-0.00265082
0.00992115
0.00602219
0.00417967
-0.00215366
0.0140777
0.00758049
0.00719541
0.014184
-0.0143036
0.0319084
0.0232695
0.0132612
0.0125993
0.0156238
0.00360913
0.00735073
0.000723047
0.0156603
0.0118534
0.0122534
0.0125436
0.0071281
0.0114276
0.0115849
0.00183848
0.00775909
0.00941676
0.0104856
0.0181328
0.013241
0.0156895
-0.0046057
0.00892546
0.00170772
0.0113334
0.00860372
0.0170833
0.00784569
0.0116939
0.00932248
0.0142788
0.0139102
0.014348
0.00851062
0.0026449
0.00324313
0.00827523
0.00910666
0.00813878
0.00475177
0.0129757
0.0134822
0.0185006
0.0090393
0.0195352
0.0102242
0.00629477
0.0190631
0.00940326
0.0220294
0.00201484
0.00438083
0.00896117
0.0166084
0.010814
0.0149126
0.00817525
0.0148345
0.0060098
0.00831564
0.00235427
0.00566876
0.0171431
0.00684971
0.0125239
0.015589
0.0136818
0.0153238
0.0102858
0.00753181
0.0100041
0.0102998
0.0130842
0.00607028
0.00141234
0.00901592
0.0110708
0.0181183
0.0206948
0.00625252
0.0132605
0.0151765
0.0157369
0.00617387
0.0135025
0.0107392
0.0161324
0.0132457
0.0109018
0.00941391
0.0114599
0.0155377
0.00658364
0.00591289
0.00097275
-0.009469
0.020831
-0.00535661
0.0098165
0.015737
0.0148027
0.0134773
0.00931357
0.00986982
0.00890363
0.00602414
-0.0033662
0.00354679
0.00707573
0.00942929
0.00932002
0.0162417
0.0252826
0.0272193
-0.00890416
0.0173197
0.0144903
0.00991028
0.00749493
0.0151758
0.0174418
0.0118349
0.0144461
0.0157235
0.0151591
0.0170513
0.0144094
0.0139093
0.00817722
0.0024337
-0.00627849
0.00549787
0.00897698
0.0101541
0.00829719
0.0123946
0.0118909
0.0108895
0.00168102
0.0121119
0.0107292
0.0152657
0.0132481
0.0128509
0.0141846
0.013245
0.0167744
0.0140795
-0.00329279
0.00719372
-0.00712016
0.0179265
0.0145325
0.0169125
0.0135559
0.00970434
0.0237197
0.011669
0.0082201
0.00246251
0.00490387
0.00670263
0.00263233
-0.0111366
0.014171
0.00575593
0.0127425
0.0136064
0.00837419
0.00611194
0.0265148
-0.0109728
0.00547873
0.000397597
0.00368656
0.000947397
0.00669501
0.00490659
0.0137853
0.00132203
0.0143367
0.00247357
0.000239207
0.00122191
-0.00083876
0.0199784
0.0261467
0.00320445
0.000123113
-0.00285412
0.00398172
0.00402744
0.0115994
0.0208282
0.00798727
0.0105484
0.00868117
0.00897578
0.00688264
0.00617199
0.011475
0.00833234
0.0105525
0.0109049
0.00964908
0.00818188
0.0126939
0.00159039
0.0120755
0.0121515
0.0103072
0.0149024
0.0164764
0.0104371
0.0153281
0.0137595
0.0146032
0.0122666
0.00670262
0.00491293
0.0128694
0.00790524
0.0156103
0.0162414
0.0184316
0.00848137
0.0113557
0.0174149
0.0272413
-0.00996366
0.0162073
0.011047
0.0127657
0.0142727
0.012425
0.0204789
-0.0107184
0.00626048
0.00509891
0.0100855
0.0109967
0.0130955
0.00624956
0.012173
0.0113095
0.0108444
0.0161774
0.0131828
0.00826925
0.00843222
0.0108876
0.00830116
0.0111471
0.0071435
0.0137753
0.0106362
0.0137441
0.0156443
0.0131309
0.01057
0.0138007
0.00724407
0.0178392
0.00281453
0.00190846
-0.000479575
0.00473283
0.0212579
0.0190318
-0.00256758
-0.0171807
0.0162297
0.00261978
0.0217971
0.0250676
0.0215888
0.0273526
0.0223686
0.0102166
SCALARS CoVolArea double 1
LOOKUP_TABLE default
876.157
946.05
1192.82
1264.63
1763.93
746.888
3730.25
1688.56
529.407
836.452
745.63
732.999
899.65
1014.88
3501.64
2543.73
1489.51
1576.48
1614.83
1541.25
601.098
1627.95
1041.09
2410.7
1675.62
930.462
902.005
1543.92
1474.57
2366.89
818.224
1687.58
1580.33
1849.5
1733.88
1559.04
3360.71
1092.44
1162.48
2491.47
1076.76
2128.68
679.763
2903.72
972.781
892.049
1186.12
1515.77
805.471
1025.13
1021.88
1291.67
974.899
865.493
2447.21
847.064
1423.99
1142.53
982.716
1241.41
1025.25
1095.37
1679.59
2150.18
1783.78
1674.95
838.26
1745.68
2180.8
1236.74
1398.04
1317.26
306.472
4361.64
263.355
3603.08
1805.52
3191.89
542.856
1064.12
966.205
1082.46
1101.79
1055.89
1388.98
1151.82
1388.31
1515.33
2370.86
1992.54
1572.29
2454.6
1447.16
2062.01
1170.53
2361.66
1517.96
937.872
1052.04
996.216
1678.46
1363.89
1266.22
1182.14
1267.37
2129.3
1836.74
1014.61
1643.65
1213.36
1696.56
1197.98
2307.53
1292.31
1759.44
1597.64
1170.14
1283.34
1775.18
1752.48
1765.7
2264.89
1909.22
1751.41
2290.34
1732.8
2066.26
1673.06
1594.5
1135.66
1059
1441.84
1578.69
1847.41
1360.58
1138.62
901.404
1348.93
1593.03
2264.21
1799.35
1169.96
1860.25
3233.93
1178.66
2817.05
1367.51
1886.34
1586.51
1378.28
1221.08
1595.29
992.594
1677.25
1144.98
1571.05
1147.36
1301.15
1398.95
2382.22
1100.17
574.014
795.02
641.068
884.614
1881.1
1269.32
837.002
2798.72
2062.89
4170.41
901.104
832.175
706.75
970.413
850.37
878.739
1635.72
1229.38
1536.6
852.731
932.244
950.574
2369.19
856.574
1584.92
949.626
883.49
979.594
1901.14
1245.36
2483.04
1108.6
1211.95
2384.05
1300.73
921.589
948.411
1394.38
913.707
789.645
2283.35
1463.95
1377.48
1455.98
2424.84
1049.29
950.605
925.936
1556.79
915.243
1062.1
2445.83
1230.36
2138.23
2232.31
2382.96
1817.95
1124.03
1185.33
1129.27
783.524
1344.05
900.081
1240.71
1174.84
929.944
1340.03
843.602
1200.34
821.878
1199.83
1742.83
1871.35
1791.13
1691.22
1866.83
1565.87
1625.71
1966.07
1820.89
1444.6
1925.97
1833.73
1096.16
899.935
1919.89
1473.81
805.481
1183.36
1286.34
1969.74
1747.06
2094.04
1846.35
1518.6
1784.71
2040.23
1381.21
1466.33
1010.69
895.595
977.143
431.971
1382.75
1579.58
1944.2
2164.74
2157.81
1620.15
847.356
368.147
693.086
616.48
335.441
2463.64
2236.77
999.769
1540.1
2293.5
703.907
187.638
1633.09
994.063
1161.1
2643.44
2184.13
3708.87
3894.31
288.761
1976.33
776.983
731.614
819.361
3350.24
2112.47
1188.79
1509.2
2622.74
1038.42
1004.41
948.81
880.746
946.674
858.583
1882.82
808.545
972.321
1057.18
2048.99
1100.11
2087.85
970.082
914.477
952.461
2412.01
1165.46
2379.81
1124.88
999.051
1227.19
1155.56
1120.75
1225.03
1246.17
1262.15
1233.94
1836.09
1464.56
1436.75
1094.75
1162.82
2928.47
2359.02
1841.85
1281.49
1847.77
1027.73
1555.62
2026.47
2028.09
1620.37
2054.94
1735.93
1743.52
1158.81
1650.9
1836.13
1380.99
2257.63
3059.95
1554.74
3748.41
874.735
1985.04
1266.22
3176.52
1678.33
2098.85
1495.63
1088.4
2709.99
1400.05
1298.35
875.422
939.052
789.664
1773.04
1192.87
2968.64
875.248
783.553
1169.67
989.632
1610.23
891.278
1035.44
2154.01
1875.3
1447.21
1432.75
1221.02
1439.77
1301.3
2808.49
1593.08
2829.23
1117.86
1180.58
1373.13
1409.43
1207.74
1476.27
1360.82
1471.05
1253.53
1830.06
2027.93
1952.08
1790.64
1622.98
1841.18
2093.23
1087.78
1228.41
1205.42
1262.81
889.214
1361.68
1817.99
819.526
1444.95
809.637
2091.39
1753.72
1457.51
852.534
1467.25
1126.17
2208.98
1717.71
2256.94
2171.24
2277.27
2013.43
997.9
1510.72
1540.39
1325.44
1243.73
1630.81
1379
1354.47
1184.59
1477.05
1256.47
1522.16
1190.12
952.633
892.344
1717.3
1406.57
2023.25
1860.97
1569.08
1685.06
1790.63
1443.93
1650.69
1475.92
1802.01
1976.24
2323.76
1625.33
1462.86
1839.12
2559.84
2765.69
4310.42
1712.3
2171.34
1836.27
2111.96
1603.63
2150.77
1940.53
1628.25
2199.26
1894.93
4013.45
2361.99
2241.39
1320.42
1685.87
1364.87
1842.85
1795.14
3117.1
1181.91
1153.11
1959.08
1323.53
1095.59
1141.31
1343.35
1060.37
1119.11
1218.82
1052.07
1039.43
1178.83
1866.33
2823.31
2036.99
2691.87
1511.04
1649.15
1117.52
1015.94
1548.71
1366.73
2119.47
1942.76
2045.5
1112.69
1192.06
1212.41
1136.8
868.843
972.693
1006.28
2827.46
1425.09
3456.69
1253.99
1451.17
1096.72
1103.79
1265.46
1343.31
875.475
1303.22
1718.53
1698.07
1783.54
1792.52
3892.76
1262.22
2645.58
1220.97
1389.86
994.843
982.45
1603.72
3054.46
1474.05
2941.03
1705.85
2871.55
3238.03
2063.95
973.515
1585.87
861.955
3100.19
2203.08
1764.71
2104.72
1620.46
1236.88
1738.94
3225.68
2734.84
2307.91
2295.18
1845.53
1086.34
1378.96
1308.04
1249.54
1542.2
1967.92
1186.6
1178.47
1223.16
1175.86
1286.67
2067.31
1650.05
1570.67
2183.6
1477.15
1318.65
1512.64
961.18
1434.71
1491.97
1416.51
1574.25
1667.87
1206.5
816.463
951.59
1184.03
1397.49
1621.99
1460.58
1153.74
1236.23
1117.14
1061.67
1249.32
3394.67
999.84
1058.44
976.738
1038.22
1164.44
1012.62
3638.64
1446.18
1193.19
1092.17
1300.77
1234.66
2613.41
934.795
1136.98
985.857
1018.4
1296.79
1600.59
1465.79
1266.7
1255.15
1215.06
1905.85
1483.69
1541.19
1358.12
1319.5
1413.42
1545.38
1505.5
999.301
2203.83
2060.99
2334.72
3061.6
1448.86
588.994
884.037
2561.17
2855.8
748.809
1504.45
509.284
654.12
653.664
1230.27
572.562
1488.53
SCALARS SignedDistance double 1
LOOKUP_TABLE default
80.7247
80.3536
65.798
60.5233
61.3071
80.1734
89.0012
59.4337
87.8898
79.5207
90.4034
88.0265
138.028
78.2711
97.7166
97.9955
79.8641
50.3923
55.9889
63.806
92.0999
96.0648
75.1415
102.649
63.1291
61.41
81.8437
85.7729
63.4247
80.3192
79.9565
59.3926
79.5472
60.3222
49.4387
53.8305
70.4909
64.5692
65.2889
78.6226
75.2204
87.2199
95.4021
111.756
94.5711
81.5298
92.2079
94.4742
86.8947
88.7193
78.2285
89.4981
81.7739
85.3002
100.345
79.6939
88.1847
92.2373
67.4402
71.4496
68.7908
67.8524
54.3821
57.7016
53.1619
58.9769
75.9619
58.178
62.0833
88.3892
83.3315
77.2247
99.2646
105.814
97.6241
116.354
90.2575
96.9154
90.443
76.4491
84.8674
87.7655
86.3141
78.1634
67.9789
69.4184
76.918
69.7417
59.59
62.6755
56.4963
84.8392
85.1973
93.2314
87.4503
91.4688
84.5223
73.3148
69.7378
87.7928
56.8723
58.7877
100.764
69.911
74.0304
57.4378
57.4094
73.7166
56.8923
69.7865
76.1241
92.5451
89.9377
70.4629
74.8339
69.7299
73.9852
79.5553
43.6533
49.0225
56.2904
70.4887
59.7661
42.914
61.5175
59.4766
70.3265
78.8699
58.9215
54.369
58.5147
58.7078
80.9298
78.0498
80.9407
66.5857
71.8986
99.8069
80.5308
87.6123
81.376
81.315
77.8705
97.3634
87.6386
82.429
85.3113
59.1756
66.8842
66.2791
72.5375
53.1465
80.8059
79.7605
70.2164
89.3463
65.6654
68.4894
58.7651
100.145
94.4361
89.8288
86.458
92.8878
88.4877
121.08
100.885
109.964
97.9454
98.9549
99.8759
84.7724
88.9229
90.6574
84.6454
86.3777
79.2817
105.474
94.2361
100.851
83.3564
83.8004
79.0072
91.1655
87.7949
90.1755
78.1559
83.8901
83.8033
100.292
90.7071
96.4597
90.2211
84.868
93.9267
92.6782
79.9001
86.7628
84.6388
83.2042
86.9413
100.386
91.0255
89.1785
90.1614
99.2644
83.016
87.7551
88.3112
83.4456
85.485
79.2658
94.1339
89.9359
92.7947
94.1006
93.4212
85.2639
76.4508
72.9783
71.9758
72.0236
63.0022
68.5089
57.4507
74.0782
72.0497
53.3657
65.634
56.9209
71.2186
76.7528
56.2405
52.9719
55.6682
50.4684
54.68
56.2243
53.9711
55.3931
51.9955
74.7029
62.0541
55.1323
68.9318
76.0353
58.5839
61.1465
80.118
65.1703
67.2695
59.1726
57.0073
64.4378
59.3851
59.267
56.9638
59.8574
91.1434
91.4208
86.5571
84.7117
85.468
88.5675
70.1752
86.9498
76.8501
57.6344
70.8741
67.2744
83.7087
96.8425
87.3663
100.406
107.976
94.5032
98.3747
127.971
119.307
116.647
96.0449
96.2556
92.542
89.6546
128.702
98.485
92.5812
92.4336
109.382
95.7474
98.4817
100.544
90.1164
84.5612
95.1119
97.5953
95.8039
95.5537
100.993
78.2177
81.7737
80.9302
81.4824
75.2477
84.7188
87.3197
83.8291
82.7046
78.7058
92.3514
86.2461
91.6369
76.2254
82.8235
81.494
88.8622
85.8007
90.7301
74.1823
74.7425
72.7036
72.4896
65.3782
68.9733
64.4911
79.6658
78.7333
69.0114
72.6549
72.2748
75.5419
73.6212
61.8481
61.8529
58.5217
60.9873
60.3872
58.4163
58.5864
59.6055
63.6131
68.044
64.8094
65.1245
88.3093
86.7658
89.8641
89.8735
83.5632
86.6983
85.4988
99.0874
97.9506
83.4858
87.5854
83.5634
91.9521
91.4876
75.408
75.6399
69.2136
89.4409
83.4329
90.026
75.949
77.2601
83.2392
87.0104
85.5059
83.7445
81.6189
90.5619
65.8886
71.9514
81.111
76.7395
74.1371
58.4259
56.9813
62.3622
58.0915
60.4174
55.5768
58.5958
102.883
79.8024
81.0281
75.0052
78.0003
89.0231
67.058
70.8791
63.9932
61.4064
62.2074
67.8093
56.0045
58.6948
58.3134
54.5887
56.907
56.4255
60.3363
74.4081
66.3389
68.964
63.0126
76.8558
64.1624
57.1497
79.7099
81.0168
87.4207
69.2431
75.5154
62.9331
84.6602
84.3824
74.5282
55.1735
63.9872
66.5476
70.0784
88.5306
84.9361
76.8199
76.894
83.9796
61.4115
70.1429
57.1228
74.0852
75.6954
80.9215
62.4449
71.032
66.6532
78.3284
77.6826
77.0794
56.8097
54.272
58.2503
44.6927
43.1459
43.0485
56.2671
53.1451
55.0721
69.709
57.4467
55.0516
85.3255
58.6113
62.2119
69.0515
62.0142
87.3184
84.7792
51.9276
53.0302
48.652
48.4413
43.5378
54.0226
49.4565
61.3344
86.8357
89.3143
87.9844
88.2765
61.383
59.9657
71.4611
61.0436
72.605
67.5846
72.4538
56.7392
55.7549
66.8803
61.1324
57.8661
56.553
61.0204
61.0645
57.4303
59.5832
56.2535
59.9062
61.1241
61.498
98.1884
93.2417
96.5139
68.8419
81.33
72.8383
72.2518
76.6253
67.941
68.342
63.4228
70.8516
58.7398
62.2602
62.5439
58.8854
75.0068
66.5686
73.4749
101.2
98.7778
97.9638
102.22
88.4544
83.4449
71.0878
96.8142
102.264
84.2491
77.2468
85.2783
79.8245
77.1948
103.981
92.2494
71.3996
78.9085
76.037
70.7746
72.976
76.1266
76.643
83.6695
90.5752
99.5468
86.9237
84.6437
88.6632
83.296
86.1021
82.3248
83.768
78.9288
80.8228
86.4055
84.596
86.9423
90.5072
87.6654
83.824
59.797
59.0937
60.2084
56.9716
60.2699
73.4748
69.6399
71.2124
67.9078
62.5884
73.7111
63.4528
68.7276
70.4267
69.466
62.4595
65.292
62.269
90.8286
62.2667
71.7235
82.0661
81.4465
51.5683
60.9848
54.7682
46.1363
49.3773
84.0467
82.6503
83.1362
78.5462
70.0026
64.3978
69.0745
79.0005
99.2061
71.3773
82.6169
104.693
99.5955
65.3013
75.6572
71.2145
64.1609
65.5402
105.396
97.556
107.492
93.8068
82.8954
72.4195
79.1088
81.2599
74.7211
70.8765
71.5524
67.0105
60.1695
79.6302
64.164
70.8575
76.7989
73.558
57.0981
56.1415
56.3223
55.7844
62.1864
65.5475
61.5456
59.0812
86.4597
90.4201
86.5535
89.1896
100.478
92.8216
88.6887
91.8099
96.0493
107.009
83.0899
93.7474
91.2983
85.7855
87.1099
107.569
94.325
99.7131
