# vtk DataFile Version 4.2
vtk output
ASCII
DATASET POLYDATA
POINTS 642 double
-230.146 405.77 48.9137
231.029 409.311 48.3674
-233.054 -350.253 52.3867
236.562 -354.423 52.6501
0.438073 -217.118 449.745
0.363669 251.378 421.686
0.517869 -191.508 -305.761
0.291609 270.819 -331.975
366.694 33.4283 -177.636
363.033 27.6472 282.97
-360.057 33.3518 -174.413
-356.404 27.6942 279.613
-335.589 241.389 174.722
-212.56 159.623 404.02
-123.234 356.145 251.688
124.539 358.546 253.577
0.416451 478.347 47.7386
141.485 404.747 -176.321
-139.38 402.184 -174.765
-221.697 169.028 -309.707
-354.978 252.725 -83.2017
-403.658 31.7542 51.6641
215.172 160.974 407.085
331.263 238.945 175.059
-223.931 -114.007 419.872
0.606329 28.2424 509.974
-345.313 -188.326 -78.4219
-350.648 -192.372 196.789
0.51597 33.4304 -397.259
-213.816 -97.2733 -299.552
358.286 254.908 -85.1911
223.793 170.143 -311.842
358.383 -196.269 198.307
227.013 -115.073 422.675
145.037 -350.435 291.311
-143.931 -348.819 290.01
0.219401 -415.341 52.574
-137.327 -331.292 -166.641
139.2 -333.298 -167.982
216.126 -98.4889 -301.63
351.771 -193.317 -80.7336
410.812 28.6619 53.8449
-296.995 333.452 116.244
-241.944 311.892 219.885
-184.171 399.253 155.773
-297.037 96.201 353.225
-284.506 203.076 302.423
-353.515 134.367 237.608
-65.7498 314.681 350.364
-175.321 271.262 345.43
-110.225 212.899 427.553
-70.1769 439.613 156.001
-120.06 461.436 47.9064
66.886 315.264 350.888
0.441495 373.485 265.225
122.234 463.943 48.0547
71.59 440.619 155.934
184.892 401.894 155.65
-74.8203 469.038 -68.0598
-193.464 422.414 -65.4643
196.924 427.426 -66.7142
75.8557 470.465 -68.4343
-72.6388 348.749 -266.122
0.36562 421.955 -187.582
73.5746 349.579 -266.881
-262.033 340.709 -136.994
-306.783 343.509 -19.5681
-116.611 226.999 -336.067
-189.014 296.595 -255.965
-373.641 149.332 -135.145
-303.858 220.821 -206.192
-304.926 102.198 -253.184
-366.46 260.702 48.9886
-392.145 38.8026 -63.6227
-409.375 149.388 -19.3694
-389.377 149.085 114.361
-390.188 27.5596 171.678
239.271 310.533 219.895
298.161 334.94 116.255
111.789 213.755 429.369
177.522 273.028 347.599
358.996 135.483 239.578
288.147 204.848 305.307
301.205 96.8674 356.392
-113.621 99.3772 476.191
0.549327 147.046 481.05
-304.672 -45.0562 359.959
-228.551 27.7701 428.913
0.11613 -95.3837 492.936
-116.055 -44.8484 482.808
-120.099 -174.406 454.202
-387.626 -83.6018 124.739
-366.59 -88.5487 245.826
-356.244 -81.5841 -129.874
-391.812 -85.0735 -15.0859
-298.752 -276.602 128.593
-361.294 -199.514 51.8263
-303.248 -281.369 -17.1159
-231.953 32.9183 -325.451
-300.139 -34.4491 -248.628
0.413798 154.327 -382.783
-117.788 105.373 -376.607
-112.114 -152.479 -318.696
-116.065 -38.4596 -369.603
0.293476 -85.3235 -370.717
191.115 298.756 -258.196
117.608 227.831 -337.429
307.731 345.061 -20.7542
264.446 343.981 -138.69
309.332 102.461 -256.063
306.542 222.783 -208.984
374.522 148.374 -136.701
304.052 -280.445 129.64
269.684 -289.015 251.757
199.435 -366.992 179.101
308.392 -45.6731 362.73
312.261 -166.277 323.704
374.522 -90.2067 248.625
76.7503 -298.9 387.096
198.135 -247.1 378.149
121.322 -176.015 456.073
75.9919 -409.268 181.69
124.663 -404.066 52.0435
-75.9131 -297.9 386.038
0.316732 -366.679 301.955
-122.924 -402.022 52.1793
-75.3126 -408.224 181.555
-196.44 -363.334 178.603
75.5599 -398.482 -63.7684
196.416 -361.189 -63.2804
-193.723 -357.827 -62.2232
-74.5955 -398.056 -63.666
72.3573 -275.418 -249.905
0.287278 -346.46 -176.759
-71.2939 -275.087 -249.651
261.389 -279.097 -133.811
308.977 -285.678 -18.1669
113.188 -153.607 -319.836
185.58 -230.527 -243.973
361.148 -81.2726 -130.68
297.168 -157.192 -198.043
304.51 -35.2679 -251.563
368.214 -204.212 51.8535
399.727 36.0988 -66.8007
402.536 -87.1322 -16.031
395.114 -84.9926 125.569
399.615 27.9705 174.19
117.4 -44.5958 485.812
231.697 28.1809 432.809
115.218 99.7441 478.936
-267.018 -286.591 251.518
-196.141 -245.048 375.691
-308.178 -165.186 321.227
-182.989 -228.398 -241.528
-257.088 -275.586 -131.394
-293.144 -154.199 -195.28
234.554 32.8824 -328.036
116.845 -38.5952 -370.83
118.504 105.525 -378.169
385.279 140.933 115.915
406.107 150.531 -20.8134
367.775 261.932 48.8556
-267.031 372.464 83.4819
-243.955 370.908 137.469
-208.928 406.529 104.17
-292.674 280.746 199.847
-272.764 328.484 169.058
-319.983 289.555 146.303
-155.798 384.843 200.215
-216.813 361.358 186.902
-183.858 335.489 235.689
-330.171 62.4321 318.95
-330.209 116.606 297.656
-358.481 82.465 260.444
-252.48 183.38 356.269
-293.581 151.838 330.593
-257.546 128.826 381.795
-342.934 188.638 204.885
-322.337 170.572 272.123
-309.562 221.567 240.422
-33.3641 286.056 388.633
-88.7684 267.841 392.884
-55.1028 234.163 428.245
-150.7 315.355 306.651
-122.09 295.882 350.775
-95.777 336.211 308.531
-163.077 187.889 419.4
-145.202 244.837 389.207
-195.994 218.764 378.563
-264.617 259.553 265.746
-233.331 240.195 327.476
-209.995 291.269 289.094
-154.095 434.431 103.779
-175.889 436.77 48.1779
-99.2336 404.628 202.059
-127.47 423.359 156.887
-61.7532 475.295 47.8913
-95.3149 455.612 104.167
-36.7553 464.866 103.755
34.1952 286.278 388.964
0.344933 319.216 355.127
63.6084 370.063 262.754
33.592 346.383 314.491
97.3205 337.681 309.072
-32.6134 345.928 314.393
-61.9187 368.992 261.809
178.397 441.269 48.0646
156.16 438.143 104.089
209.801 409.726 104.102
37.7414 465.459 103.851
97.0408 457.435 104.504
62.827 476.265 47.9437
156.08 386.187 200.895
129.082 426.024 157.156
100.691 405.807 202.773
-34.5213 413.154 209.237
35.1813 412.662 209.078
0.313438 443.167 156.777
-159.054 449.314 -9.35822
-213.935 417.937 -8.29228
-37.8643 481.576 -10.051
-98.9721 471.513 -10.1154
-168.314 416.544 -121.4
-135.961 451.265 -68.5317
-108.863 441.078 -123.612
216.401 422.854 -9.34728
161.995 453.209 -9.71302
110.348 443.051 -124.485
138.192 454.017 -69.1834
171.086 420.074 -122.864
100.53 473.516 -10.2951
38.7336 482.386 -10.1576
-36.4825 312.495 -302.822
0.289931 353.13 -270.966
37.1307 312.807 -303.204
-71.6247 418.04 -185.147
-37.1339 389.581 -230.014
-107.217 379.237 -223.202
108.713 380.893 -224.373
37.8588 389.923 -230.225
72.6646 419.231 -185.794
0.397684 473.888 -69.4747
38.7759 452.605 -130.768
-37.9306 451.786 -130.413
-253.608 385.857 -43.0185
-271.489 378.314 14.3596
-202.871 374.96 -157.658
-229.847 384.399 -102.829
-334.255 300.774 -52.226
-287.521 345.024 -79.2456
-313.021 300.065 -111.975
-58.9878 250.952 -337.501
-95.5287 291.201 -305.547
-207.118 234.552 -286.198
-154.414 264.257 -299.56
-171.276 199.511 -326.932
-132.652 326.099 -264.511
-165.911 352.802 -218.772
-367.55 91.2937 -155.263
-341.011 126.498 -194.551
-336.159 67.49 -215.935
-334.175 239.062 -147.664
-344.296 186.641 -173.462
-369.875 201.343 -112.118
-266.501 136.38 -284.853
-305.475 162.688 -230.982
-264.448 196.093 -260.369
-228.925 322.759 -199.599
-250.269 261.375 -234.751
-287.203 284.03 -175.241
-306.376 343.114 49.136
-367.226 260.89 -16.9493
-341.165 304.483 14.6896
-335.453 300.096 83.2684
-355.656 254.113 113.685
-380.775 36.742 -121.71
-388.967 94.5313 -99.7166
-410.332 98.5204 12.0497
-406.051 98.7169 -41.2204
-398.762 37.7852 -4.5761
-395.894 150.687 -77.2518
-389.265 201.316 -52.3587
-377.734 82.043 207.763
-378.209 27.6874 227.286
-371.639 196.248 145.937
-370.586 140.752 174.364
-399.734 27.1664 111.503
-386.969 85.9748 145.336
-395.076 92.4213 81.1623
-395.039 206.184 14.2841
-406.871 152.143 46.0896
-388.112 204.191 83.101
244.675 372.868 137.398
267.968 374.555 83.5059
183.466 337.763 238.219
216.588 363.324 186.542
320.431 291.579 144.333
273.199 330.459 167.31
289.885 278.191 199.002
56.1733 234.47 428.976
90.1735 268.607 394.028
198.508 220.498 381.236
147.134 246.224 391.276
165.113 189.117 422.012
123.799 297.167 352.165
152.262 317.198 308.197
364.622 82.759 263.053
335.207 117.618 300.474
335.473 62.4093 322.114
312.436 220.462 244.745
326.833 171.942 274.625
346.674 186.473 211.559
260.861 130.019 384.998
297.652 153.385 333.584
255.766 185.173 359.257
211.426 292.547 292.36
236.213 242.139 330.181
266.721 259.438 270.151
-55.9137 182.656 459.298
0.44144 201.744 454.741
-165.803 131.564 444.301
-113.417 158.068 455.718
0.614223 88.5577 499.864
-57.0565 123.926 483.696
-57.4586 64.5947 498.782
-332.068 -9.11154 321.121
-303.712 27.3465 359.483
-228.901 -43.12 428.277
-268.181 -9.12748 396.569
-267.772 -80.3014 393.039
-265.88 63.2497 394.324
-223.743 95.5393 421.013
-0.115766 -158.401 473.598
-60.4053 -137.85 477.479
-61.8567 -198.841 458.102
-58.1246 -8.07398 504.102
-58.9994 -70.6154 493.249
0.588588 -32.2866 507.531
-174.81 -146.141 441.683
-119.494 -110.91 470.482
-172.537 -81.7762 455.832
-173.705 64.2735 458.171
-175.846 -8.75707 461.349
-116.426 28.459 487.167
-381.793 -28.7653 210.222
-363.273 -30.8714 263.533
-401.289 -26.3332 88.1866
-393.069 -26.7676 148.767
-363.291 -142.736 223.177
-378.403 -87.6876 188.214
-372.785 -139.059 163.478
-360.387 -21.1401 -156.619
-373.902 -21.6802 -97.3779
-375.033 -138.625 -47.7137
-378.098 -86.7787 -70.9014
-355.459 -137.745 -104.458
-393.446 -27.1797 -36.886
-401.076 -27.951 19.1097
-269.264 -317.937 90.3013
-306.144 -284.548 52.2187
-271.336 -319.363 17.0584
-351.864 -195.475 124.913
-334.817 -241.564 89.3244
-330.766 -239.655 165.613
-327.772 -237.413 -49.1319
-336.574 -242.804 17.6211
-358.138 -197.046 -13.7344
-394.705 -85.2458 52.1205
-383.725 -144.642 17.2224
-379.424 -142.811 88.5417
-307.464 33.0144 -255.506
-333.563 -0.969645 -214.106
-230.428 101.588 -322.9
-271.343 68.2485 -293.113
-259.962 -66.1417 -277.457
-269.249 -1.88098 -290.552
-226.596 -34.2468 -317.078
0.327604 213.317 -360.204
-59.3626 192.854 -364.906
-59.4511 69.8493 -393.324
-59.7545 130.423 -384.337
0.528479 93.9501 -395.813
-118.961 166.944 -361.174
-172.507 139.079 -348.654
-57.673 -173.546 -316.185
-57.2436 -120.171 -351.132
0.396146 -137.861 -345.252
-168.11 -70.3106 -339.339
-115.288 -96.4693 -349.174
-164.275 -126.689 -313.345
0.384993 -27.1503 -388.093
-58.6773 -62.754 -374.671
-59.0215 -3.40443 -388.412
-178.159 69.2986 -356.789
[...]
POINT_DATA 642
SCALARS Mean_Curvature double 1
LOOKUP_TABLE default
0.00527886
0.00494112
0.00579143
0.00574779
0.00274562
0.00605816
-0.00205102
0.00502708
0.00598247
0.0056978
0.00610035
0.00536243
0.00401319
0.00478642
-0.000887466
0.000147072
0.00360961
0.00524844
0.00520055
0.00488304
0.00398847
0.00347223
0.00480612
0.00127121
0.00389575
0.0061924
0.00466777
0.00576481
0.004855
0.00521579
0.00524327
0.00473102
0.00684538
0.00428749
0.00506954
0.0050576
0.00270492
0.00505519
0.00510111
0.00512763
0.00587526
0.00442294
0.00513338
0.000992187
0.00504064
0.00487649
0.00453261
0.00453379
0.00476288
0.00479373
0.0047206
0.00533475
0.00551245
0.00453469
0.00030207
0.00543431
0.00517493
0.00510995
0.00596551
0.00501539
0.00609079
0.00584933
0.0046101
0.00360199
0.00453872
0.00469423
0.00586292
0.00414691
0.00402671
0.00585567
0.00462248
0.0049074
0.00470217
0.00139047
0.00854939
0.00434404
0.00338942
-0.0015556
0.00538534
0.00476921
0.00494935
0.00453521
0.00487872
0.00466193
0.00462718
0.00494151
0.00542312
0.00452573
0.00345041
0.00331412
0.0056808
0.00112135
0.00563784
0.00219428
0.00446692
-0.00186026
0.00495943
0.00521483
0.00536149
0.00500291
0.00445343
0.00506241
0.00331026
0.00519783
0.00455384
0.00410965
0.00411189
0.00479648
0.00440929
0.00456256
0.00500698
0.00361509
-0.00221741
0.00403508
0.00626997
0.00350895
0.00520175
0.00585622
0.00520725
0.0050927
0.00645783
0.00810993
0.00514512
0.0051559
0.00214102
0.00504871
0.00816759
0.00602397
0.00468457
0.00515799
0.00513847
0.00537
0.00451686
0.00276932
0.0052149
0.0049583
0.00513267
0.00317416
0.00523597
0.000774539
0.00519532
0.00497409
0.00555822
0.00342614
0.00829754
0.000966886
0.00533602
0.00386062
0.00485258
0.00477302
0.00594779
0.00494246
0.00619339
0.00509645
0.00499356
0.00509964
0.00530158
0.00501698
0.00487761
-0.00159186
0.00649214
0.00537763
0.00502652
0.00518038
0.00454838
0.00308366
0.00565496
0.00520765
0.00484847
0.00619571
-0.00252556
0.00492032
0.00483962
0.00485272
0.00480675
0.00485244
0.00482931
0.000344604
0.00450287
0.00270446
0.00478881
0.00472926
0.00462858
0.00461176
0.00496868
0.00494047
0.00477538
0.00485196
0.00477482
0.0033182
0.00471371
0.00435176
0.00447136
0.0041252
0.00396274
0.0049793
0.00558824
0.00563001
0.00506722
0.00468027
0.00524654
0.000557693
0.00497608
0.00484968
0.00511375
0.000188985
0.00511213
0.00526827
0.00453195
0.00505583
0.00561057
0.005296
0.00406294
0.00556202
0.00404101
0.00454413
0.00358257
0.00306844
0.0056942
0.00419472
0.00570391
0.00609307
0.00478739
0.00600622
0.0050567
0.00500247
0.0060628
0.00486369
0.00571864
0.00489864
0.00592019
0.0057625
0.00468885
0.00426956
0.00461877
0.00533194
0.00453016
0.00501243
0.0049666
0.00429041
0.00526795
0.00412609
0.00474045
0.00464444
0.0045658
0.00527002
0.00411512
0.00402119
0.00465143
0.00449667
0.00479914
0.0038691
0.00462681
0.00373287
0.00423274
0.00464361
0.0045964
0.00417912
0.00328126
0.00245774
0.00470359
0.0043725
0.00676383
0.00546014
0.00496281
0.00290222
0.00352714
0.0043103
0.004321
0.00480078
0.0051051
0.00549948
0.00546129
0.00513138
0.00461381
0.0059127
0.0030039
0.00683342
0.00615317
-0.00199178
0.00655084
0.00557449
0.0055298
0.00526491
0.00703767
0.00040842
0.00387293
0.000466695
-0.0031109
0.00584429
0.00779022
0.00630842
0.00515991
0.00481445
-0.00147749
0.00600153
0.00647172
0.00641422
0.000264715
0.00445015
0.00470734
0.00488261
0.0049348
0.0048207
0.00498412
0.00467667
0.00472752
0.00479187
0.00464486
0.00357867
0.00477309
0.00359406
0.00478194
0.00490786
0.00487519
0.0047933
0.00497417
0.00436822
0.00473932
0.00502945
0.00469278
0.00461402
0.00519845
0.00475652
0.00501984
0.0025324
0.0044893
0.00454123
0.00289414
0.00459322
0.00483921
0.00481866
0.00288202
0.00398932
0.00658257
0.00619755
0.00333639
0.00565486
0.00574539
0.00338499
0.00390515
0.00464047
0.00404298
0.00502737
0.00430159
0.00330464
0.00429593
0.00288707
0.00686498
0.00201637
0.00425321
0.00563266
-0.00243583
0.00600094
0.00386109
0.00545569
0.00379133
0.00387458
0.00360283
0.00511944
0.00509779
-0.000959952
0.0047702
0.00742044
0.00510867
0.00510942
0.00452017
0.0031894
0.00635229
0.0037308
0.00534211
0.00495375
0.0053092
0.00483486
0.00536605
0.00513002
0.00518807
0.003349
0.0044343
0.00536775
0.00454826
0.00500685
0.00492077
0.0051319
0.0015764
0.00527337
0.00475663
0.0051703
0.00501506
0.00472834
0.00424764
0.00483863
0.00448297
0.0049546
0.0049822
0.00523901
0.00457136
0.00384877
0.00462388
0.00448093
0.00447475
0.00436627
0.00399196
0.00455609
0.00478823
0.00479332
0.00505324
0.00458024
0.00438819
0.00470683
0.00577173
0.00349946
0.00472262
0.00356447
0.0033027
0.00474597
0.00571214
0.00440687
0.00505984
0.0042073
0.00472036
0.00434164
0.00371279
0.00496644
0.00147003
0.00553089
0.00720964
0.0073021
0.00468907
0.00674394
0.00462872
0.00345597
0.005763
0.00239905
0.00568074
0.00437216
0.00553787
0.00700408
0.00560149
0.0052609
0.00564867
0.00500194
0.00731845
0.00508285
0.00515216
0.00517837
0.00520493
0.00539159
0.00508353
0.00465458
0.00479394
0.00499431
0.000977946
0.005133
0.00462645
0.00637568
0.00434124
6.269e-06
0.000203079
0.00580962
0.00197115
0.00492975
0.00578998
0.00504937
0.00574161
0.00495236
0.00512486
0.00098106
0.000686419
-0.0001834
0.00051513
0.0050526
0.00528441
0.00620186
0.00514939
0.00530984
0.0050807
0.00517069
0.00521172
0.00520916
0.00446695
0.00588016
0.00513886
0.00525652
0.00526373
0.0052234
0.00528672
0.00513293
0.00519831
0.00514372
0.00544097
0.0045367
0.00444089
0.00231465
0.00464076
0.00472633
0.00490578
0.0053042
0.00499089
0.00473381
0.00541611
0.0031753
0.00458249
0.00479547
0.0051306
0.00506603
0.00496699
0.00512129
0.00531077
0.0050936
0.00499675
0.0019254
0.00436421
-0.000165191
0.0034302
0.0045973
0.00494187
0.00509356
0.00562579
0.00424427
0.00494492
0.00576781
0.00256533
0.00379196
0.00527206
0.00308167
-0.001124
0.00502701
0.00538527
0.00507664
0.00511303
0.00545805
0.00547581
0.00497191
-0.00129178
0.00720841
-0.00120307
0.00332314
0.00113708
0.000727764
0.00498263
0.00380505
0.00508005
0.00493627
0.00409264
0.00301284
0.00294406
0.00138672
0.00544835
0.00428457
0.00318148
0.00339075
0.00168486
0.0032738
0.00288346
0.00422015
0.00643713
0.00463175
0.00462562
0.00447765
0.00411576
0.00295497
0.00471396
0.00522638
0.00489437
0.00462335
0.00468343
0.00464824
0.00472428
0.00519853
0.0065531
0.00533341
0.0045672
0.00542211
0.00501573
0.004943
0.00544637
0.00504524
0.00511363
0.00497106
0.00548443
0.00650527
0.00482089
0.0033066
0.00575088
0.00482431
0.00484462
0.00474295
0.0041937
0.00510514
0.00487369
0.00313643
0.00011146
0.00512261
0.00488287
0.00516451
0.00510894
0.00498043
0.00409228
-0.000934799
0.00298497
0.00335162
0.00478582
0.00501463
0.00480439
0.00502299
0.00527124
0.00509302
0.00502505
0.00542541
0.00491934
0.00515979
0.0047138
0.00480524
0.0048773
0.00509591
0.00448369
0.00500734
0.00477015
0.00487366
0.0059804
0.00510174
0.00485978
0.00509616
0.00541325
0.00189917
0.0027651
0.00469588
-0.000747118
0.00361693
0.00535613
0.00619324
0.00539377
-0.00104162
0.00511885
0.00618877
0.00542965
0.00536197
0.00508859
0.00739783
0.00636934
0.00690897
SCALARS CoVolArea double 1
LOOKUP_TABLE default
3010.42
3040.35
3130.67
3183.18
3367.88
2843.42
3257.19
3227.16
2846.15
2934.42
2823.75
2857.09
3688.27
3708.37
4066.14
4009.28
3979.24
4161.58
4120.04
4005.81
3909.17
3894.72
3770.97
3846.8
4084.93
3949.48
3674.76
3773.28
4011.62
3918.03
3887.97
4071.79
3868.98
4168.34
4356.43
4298.24
4309.07
3898.05
3943.95
3989.06
3776.46
3859.86
3438.38
4047.11
3391.41
3481.04
3783.32
3512.15
3296.86
3689.26
3536.48
3798.55
3669.01
3331.06
4131.79
3698.66
3832.21
3400.67
4291.37
3836.66
3850.62
4332.02
3937.97
4433.82
3966.73
4227.94
3663.37
3910.19
4306.15
3551.54
4151.32
3699.89
3866.45
3758.54
3500.03
3826.82
3485.79
4237.96
3408.43
3565.86
3697.5
3400.91
3759.56
3571.38
4091.13
3674.99
3700.82
4111.97
4100.87
4360.88
3986.19
4064.58
3496.9
3694.39
3717.98
3953.87
3959.48
3620.8
4053.02
3553.36
3916.43
4207.71
3731.01
4075.21
3655.57
4349
3939.19
3746.67
4293.98
3745.69
4213.35
3688.81
4058.6
4383.57
3963.84
3784.04
4291.24
3578.9
4173.28
4510
4022.96
4399.26
3980.79
4150.82
4633.53
3935.82
4374.91
3925.46
4228.85
3813.32
3748.18
4196.62
3671.39
4204.68
3639.83
4111.28
3726.27
3754.27
4093.37
3839.96
4088.92
3629.37
4093.64
3669.36
3774.43
4168.32
3447.97
4371.26
4173.53
4122.24
4269.05
4458.42
4162.85
4049.03
4014.73
4035.52
4113.48
4111
4235.18
4227.08
3730.73
3773.36
3504.03
3425.62
3532.93
3862.55
3444.02
3356.84
3547.31
3526.05
4212.05
3427.7
3403.4
3262.08
3733.36
3425.89
3447.25
3627.56
3517.26
3912.57
3348.97
3467.7
3449.82
3906.85
3342.62
3470
3485.1
3464.19
3745.12
4360.41
4175.47
4394.02
3623.97
3649.14
3903.26
3428.13
3651.71
3585.98
3957.57
3366.02
3332.59
4096.75
3523.97
3468.37
3510.67
4100.57
3643.98
3615.06
3549.62
3974.36
3600.91
3687.62
3554.89
3435.48
3914.66
4431.26
4464.37
4345.5
3797.02
3704.65
4189.95
3790.36
3842.12
3863.83
4267.67
3711
3820.16
4321.05
3922.28
3887.36
3844.17
4208.8
3867.88
4016.75
3880.64
4315.82
4026.14
3876.41
3912.66
4043.18
4348.88
4856.74
4918.99
4900.39
3823.43
3603.46
4258.28
3909.06
3639.37
3818.88
4103.55
3879.03
3957.6
4232.17
3942.85
3811.11
3952.8
4270.15
3527.16
3750.01
3554.55
4042.98
3681.07
3535.01
3703.19
3810.72
4183.39
4754.66
4732.81
4647.2
3599.72
3930.47
3608.5
3519.38
3705.45
3488.74
3532.62
3722.65
3400.36
3693.6
3408.57
3853.09
3491.24
3307.32
3704.97
3689.9
3642.61
3825.55
4133.83
4157.15
4002.44
4031.77
3430.63
3565.31
4240.26
3605.46
3405.68
3531.87
4058.6
3471.82
3497.49
3788.74
3495.18
3525.89
3371.89
3888.66
3371.29
3498.95
3506.64
3925.93
3465.32
3572.69
3528.5
3499.47
3789.69
4424.27
4161.73
4426.12
3654.31
3513.54
3954.44
3666.85
3687.83
3738.91
4084.56
3564.24
3657.01
4188.04
3782.04
3753.84
3644.91
3936.45
4045.38
4099.28
3986.13
4178.88
4061.43
3845.29
3895.19
4055.81
4301.5
4567.82
4722.85
4665.84
3524.27
3480.35
3869.19
3614.41
3393.15
3602.42
3953.79
3501.66
3885.74
3660.5
3610.73
3425.29
3794.68
3866.55
3862.01
3792.19
3644.24
4118.19
3828.11
3729.88
3534.19
3618.83
3772.82
4289.42
4187.87
4478.34
3598.47
3404.95
4065.06
3686.86
3602.48
3606.43
3910.08
3902.11
3969.93
4164.97
3906.75
3793.84
3899.14
4140.11
3791.19
3715.13
3734.57
3926.81
3668.01
3656.31
3731.78
3728.82
4127.95
4616.13
4635.26
4538.62
3988.44
3893.48
4305.85
3990.62
3856.27
3978.62
4277.19
3679.88
3856.74
4149.22
3867.61
3690.81
3936.85
4298.46
3558.31
3803.25
3545.72
4238.57
3879.61
3770.48
3579.14
3791.15
4085.51
4818.71
4722.99
4787.38
3956.35
4026.72
3982.34
4151.75
3892.53
3800.4
3958.68
3940.63
4458.16
3654.94
3744.37
3588.77
4257.85
3834.74
3814.69
3494.62
3715.14
4108.9
4077.63
4120.23
4003.02
4501.54
4181.7
4099.63
3963.05
4093.28
4357.16
4897.66
4915.55
5003.45
4166.42
3887.53
4380.97
4056.31
3983.49
4188.25
4559.02
4075.67
4257.79
4515.41
4230.23
4074.7
4238.15
4535.86
3842.42
4133.84
3941.3
4547.01
4144.65
3947.73
3883.39
4006.32
4325.39
4950.75
4939.98
4919.7
3842.46
3738
4232.06
3840.84
3746.43
3842.1
4135.73
3660
3793.42
4094.04
3800.05
3692.01
3806.39
4212.88
3742.23
3761.59
3732.26
4110.94
3784.23
3634.07
3599.51
3767.3
4077.52
4762.51
4704.45
4726.02
3827.16
3734.64
4090.23
3820.92
3593.01
3780.08
3973.84
3790.58
3759.51
4286.63
3809.48
3705.45
3692.02
4007.09
3552.76
3731.98
3477.63
3914.24
3779.38
3598.71
3676.38
3816.99
4308.86
4492.75
4616.62
4437.2
3903.82
3907.37
3682.33
3907.42
4229.18
3459.95
3847.55
3886.56
3796.26
3762.72
3689.56
3821.3
3603.97
3398.34
4073.11
3691.25
3555.49
3725.11
3909.07
4351.62
4332.82
4640.33
4163.56
4385.94
4115.1
4083.56
4170.21
3732.28
4006.15
3716.44
3841.87
4283.2
3672.57
4096.45
3750.85
3697.32
4008.43
4777.79
4610.91
4677.29
3960.82
4368.79
3881.99
3828.97
4034.92
4112.02
4287.05
4060.69
4146.53
4449.12
3661.39
3960.53
3623.81
3768.85
4175.58
4906.11
4813.28
4740.06
3742.03
3954.8
3661.03
3784.03
4231.91
3736.76
3911.98
3676.18
3740.07
4018.87
3606.28
4240.02
3737.21
3624.21
3841.87
4414.51
4378.63
4563.11
3668.72
3978.6
3676.97
3751.73
4134.94
3730.73
4129.48
3745.75
3708.65
3984.82
3980.78
4201.18
3931.67
3908.82
4158.36
4597.21
4662.75
4672.21
3388.37
4101.14
3698.18
3691.19
4078.09
3565.77
3833.58
3539.7
3571.45
3975.64
3666.47
3772.37
3471.55
3667.32
3938.82
4285.41
4125.89
4256.63
SCALARS SignedDistance double 1
LOOKUP_TABLE default
253.362
249.206
222.954
209.172
182.911
268.57
278.452
201.332
264.969
266.82
284.213
284.392
323.114
266.228
320.807
315.166
247.722
185.918
196.146
219.308
238.481
316.799
256.11
316.117
216.851
206.335
267.082
270.207
214.278
264.678
235.448
209.842
251.833
205.22
167.15
173.769
220.703
224.14
218.88
257.013
253.711
298.805
285.295
323.917
297.014
272.657
300.48
309.537
296.489
296.231
265.283
292.504
249.403
293.023
314.951
242.893
290.315
293.845
197.165
215.198
204.493
193.75
195.009
189.821
191.719
213.128
236.212
205.295
211.609
275.139
235.553
246.643
275.026
319.137
298.048
331.789
310.757
314.733
282.046
259.685
288.209
293.744
289.541
259.975
235.535
236.947
254.411
241.184
198.188
212.291
189.119
295.338
283.145
298.72
297.11
256.612
271.795
239.111
232.048
269.952
200.685
205.032
270.439
232.686
243.971
202.759
200.774
231.643
204.442
229.231
227.695
263.44
240.71
196.891
211.112
236.919
213.276
262.492
155.807
169.874
186.938
207.426
206.585
158.788
175.675
210.14
208.488
218.381
208.692
201.188
212.142
208.241
252.017
235.751
251.629
224.33
221.237
267.246
250.346
283.8
269.872
256.49
257.231
302.234
288.071
282.623
291.928
203.793
230.465
228.592
216.291
180.856
234.78
257.055
238.365
279.091
221.917
229.096
200.494
307.968
288.214
273.327
268.427
289.462
274.986
323.693
305.96
303.441
315.724
310.111
322.207
278.047
290.882
296.667
283.018
286.191
268.669
325.761
304.751
320.621
282.821
281.268
266.736
310.003
296.49
309.274
265.141
280.685
281.034
317.89
298.145
313.95
275.817
253.221
312.671
297.874
244.861
272.188
268.978
281.276
293.611
314.268
304.412
304.022
306.109
317.248
246.851
270.504
271.605
270.421
268.083
243.313
311.609
293.142
309.122
309.093
307.529
289.582
230.425
232.963
220.452
222.584
201.663
204.933
190.055
226.978
221.079
182.05
194.736
189.419
216.839
222.313
197.052
192.202
195.604
186.432
190.036
194.796
188.252
190.376
183.691
200.788
187.692
185.351
223.202
242.878
206.211
211.487
233.124
220.163
223.527
202.893
201.577
218.462
209.409
210.532
202.848
204.754
283.709
265.099
263.908
234.922
254.55
253.751
231.585
248.281
233.26
211.166
221.719
220.579
259.467
253.549
254.25
278.763
298.803
303.027
299.806
324.194
310.441
318.635
283.255
263.241
311.338
298.791
327.766
325.639
313.063
318.599
322.754
280.637
314.128
303.494
286.23
264.814
315.034
306.652
299.611
301.731
315.248
264.457
277.02
271.985
273.633
256.878
290.409
302.418
280.036
277.349
263.281
306.028
292.192
307.765
257.299
274.42
272.312
303.923
288.448
305.712
251.076
252.623
250.395
249.833
221.414
235.152
220.752
268.147
261.808
233.65
246.259
234.266
256.379
252.835
202.257
203.376
183.513
205.838
203.617
193.045
202.626
205.395
214.95
237.071
225.507
221.52
299.317
283.256
305.279
303.019
279.662
295.847
293.437
299.108
308.181
284.949
295.677
284.109
309.436
307.379
238.909
244.966
228.947
281.5
264.455
267.338
252.559
255.068
265.988
298.391
286.532
292
256.169
275.968
222.395
236.821
265.797
250.203
247.428
203.546
202.326
208.387
201.931
201.589
202.856
208.303
273.813
255.53
261.53
247.761
250.69
266.838
227.504
237.032
221.758
214.793
215.191
229.625
197.382
201.196
195.761
195.968
203.594
201.684
209.06
238.397
219.072
216.182
215.01
230.612
202.147
195.913
245.673
245.831
261.758
221.734
233.149
218.622
248.249
243.57
227.637
202.434
211.575
212.411
223.375
229.962
220.962
223.415
224.862
251.138
183.081
201.666
178.614
250.767
248.443
262.137
207.532
224.97
221.701
258.567
239.188
229.818
169.438
164.628
184.176
162.609
158.385
156.751
194.659
173.277
186.563
201.885
189.132
178.764
216.637
204.722
180.292
205.404
213.431
218.538
228.496
166.411
167.371
167.094
162.055
162.038
165.21
165.46
214.087
222.491
231.051
224.518
219.879
213.236
194.316
209.168
184.804
185.212
181.82
216.144
198.781
200.992
214.449
206.463
207.633
201.204
210.283
213.878
206.633
212.757
206.687
215.961
206.191
212.442
271.981
261.171
269.637
227.411
245.111
234.181
236.003
242.065
227.008
217.04
218.718
222.431
207.441
212.277
218.101
210.334
235.887
220.155
236.458
272.718
268.981
269.456
267.964
261.561
248.419
232.988
281.054
277.855
259.434
259.944
277.117
267.889
255.363
275.76
271.339
235.619
256.915
245.275
227.087
252.247
238.148
246.921
264.39
283.506
291.97
291.592
291.202
298.532
284.34
266.107
279.142
279.349
273.214
276.099
296.236
287.47
286.777
264.657
286.211
276.257
201.059
208.305
202.083
197.314
199.564
247.874
242.107
244.448
232.395
219.26
248.599
216.055
231.798
243.588
241.62
214.979
227.762
212.923
241.589
191.217
214.016
238.811
242.681
169.142
197.78
180.718
166.109
172.072
266.147
251.475
259.984
243.193
224.253
192.622
204.403
220.002
268.836
239.701
252.058
271.423
274.762
223.053
251.84
236.757
223.579
228.616
293.251
280.259
287.685
289.528
271.217
246.181
257.402
265.341
240.608
238.316
238.025
223.294
211.106
253.936
220.057
235.37
247.029
241.929
200.48
201.857
199.162
198.176
204.651
223.144
211.815
207.953
291.746
302.321
300.749
306.29
313.998
283.097
262.307
274.99
301.673
306.66
255.848
295.671
276.023
251.001
251.355
306.667
279.892
300.052
