# vtk DataFile Version 4.2
vtk output
ASCII
DATASET POLYDATA
POINTS 642 double
-133.601 256.114 -0.767746
131.581 266.014 -4.04059
-130.539 -223.788 42.3295
146.377 -231.755 42.7935
1.35794 -176.25 319.375
3.08365 111.231 280.593
3.11763 -80.0305 -120.92
2.43485 200.515 -198.544
182.971 60.2697 -117.473
180.584 3.79588 210.121
-157.886 58.8066 -116.982
-158.576 8.22094 208.229
-161.339 159.622 60.3004
-100.497 69.2406 272.023
-38.8246 162.482 127.507
48.2658 164.424 133.498
1.25174 305.522 -19.227
90.9733 302.778 -104.887
-78.5955 296.182 -101.808
-122.866 120.752 -193.356
-201.057 192.476 -41.2427
-167.942 23.825 37.6844
110.997 73.4073 278.193
142.973 135.672 68.345
-125.441 -99.1832 295.415
6.4871 1.50569 359.138
-165.428 -132.83 -14.5937
-154.194 -141.096 190.111
4.49163 58.6098 -239.226
-101.576 -1.20215 -174.095
196.874 193.672 -51.405
133.425 123.303 -196.98
177.62 -143.527 195.212
140.71 -100.269 299.644
101.186 -246.424 242.837
-92.8908 -242.779 241.65
0.341777 -250.471 41.0548
-85.1797 -214.054 -65.0364
97.3452 -216.435 -66.8876
111.955 -3.86393 -176.932
180.608 -143.533 -17.1936
188.166 6.64016 57.43
-160.473 210.698 22.1167
-117.977 147.065 78.3027
-109.042 241.111 25.2371
-137.725 38.9453 244.863
-123.057 80.3888 211.954
-144.512 54.632 182.044
-22.5896 132.459 235.932
-74.2045 110.145 236.804
-50.2767 94.7644 284.516
-33.6445 266.464 28.5632
-58.611 299.897 -13.9202
32.7402 135.164 235.401
5.77969 163.564 139.339
72.3381 304.195 -14.3639
44.9339 266.789 28.9002
105.273 246.295 22.6716
-47.4084 328.268 -53.6755
-104.704 288.708 -48.7587
112.377 304.323 -53.8515
57.117 329.532 -53.901
-43.0734 255.817 -160.842
2.04818 305.292 -108.639
50.348 257.549 -162.547
-160.548 240.702 -75.3264
-177.52 229.976 -23.3878
-71.0092 161.202 -207.255
-108.939 214.586 -148.29
-182.86 165.779 -66.5744
-172.463 175.195 -105.087
-153.207 84.9987 -153.239
-192.789 189.514 -2.72462
-155.227 78.9077 -24.3116
-203.009 167.979 -30.7479
-149.46 159.482 43.3485
-161.372 3.68659 141.588
105.27 154.942 96.0165
159.936 220.424 15.9609
61.3369 96.1106 287.774
83.1627 114.124 241.192
166.927 48.3544 185.439
133.98 81.639 221.027
151.833 40.1817 250.475
-52.3702 43.5203 323.269
4.35138 65.0614 325.719
-147.021 -49.6846 254.861
-115.671 8.09072 293.286
3.17433 -53.4709 352.248
-57.6106 -33.7208 336.769
-78.1036 -144.107 323.185
-171.697 -53.2217 100.1
-157.692 -73.6657 209.787
-147.989 -53.3635 -56.1122
-172.322 -72.2485 14.289
-143.466 -156.604 117.436
-169.307 -138.836 33.367
-156.192 -184.376 7.47069
-123.94 54.3688 -195.807
-144.037 28.5643 -144.127
3.59641 110.621 -240.676
-72.0294 89.6105 -232.684
-68.2516 -45.3164 -157.836
-66.8329 19.7888 -216.806
2.23875 -0.477078 -212.383
117.118 220.718 -154.521
77.4546 164.059 -208.808
179.822 235.814 -24.9209
165.653 249.426 -80.8305
173.799 82.7464 -158.151
178.614 173.842 -113.998
185.787 135.779 -76.5529
161.726 -166.879 116.59
162.708 -200.154 215.008
122.467 -234.458 176.991
165.975 -49.8495 259.985
178.634 -129.765 247.478
181.573 -78.2904 209.729
63.2712 -221.821 305.475
130.349 -186.664 293.764
85.8308 -148.922 323.974
59.9154 -256.832 189.72
93.7454 -254.267 42.2443
-57.0317 -220.102 302.957
1.59443 -248.599 244.344
-82.13 -252.654 42.9262
-54.7281 -255.574 187.715
-109.824 -232.264 172.51
65.218 -252.258 -18.6513
129.346 -239.244 -18.7618
-115.76 -232.892 -16.4558
-59.0589 -252.173 -18.2871
61.8 -172.94 -95.5162
0.7779 -212.557 -65.6751
-54.327 -171.949 -96.167
154.979 -189.669 -47.704
177.582 -194.311 5.00581
74.2869 -47.1084 -159.975
106.215 -157.998 -94.4894
168.579 -44.7823 -57.8242
152.593 -108.965 -67.5561
161.529 28.5531 -147.448
185.167 -145.475 34.0461
169.36 59.2291 -46.4341
188.502 -83.3328 17.1941
187.361 -56.346 104.063
184.247 8.21749 153.41
63.4388 -28.1871 345.986
126.569 7.23171 300.378
61.1019 42.9274 329.367
-143.565 -190.974 215.923
-120.993 -181.744 287.866
-155.1 -131.958 243.288
-94.9643 -152.621 -93.0851
-137.744 -182.589 -43.2188
-141.123 -101.212 -64.909
137.383 54.5617 -199.384
72.4843 18.6941 -218.77
74.7677 89.4848 -236.211
178.332 84.7317 46.3723
193.815 161.628 -28.5292
186.635 195.933 -10.9066
-148.81 234.3 11.1891
-136.211 228.166 24.7437
-121.116 249.393 15.0508
-148.661 141.62 63.7775
-149.022 204.723 32.5439
-166.666 187.613 28.8828
-80.9517 224.566 41.8834
-123.895 220.074 35.8117
-80.7144 155.193 102.693
-150.235 23.7626 226.584
-144.977 44.673 215.462
-153.41 28.6141 199.848
-115.181 75.109 243.814
-131.352 61.512 231.153
-121.344 54.1424 260.078
-136.217 120.355 121.311
-135.257 68.7535 196.807
-127.23 97.0132 147.476
-10.0625 123.459 258.663
-36.7312 115.139 261.767
-20.7522 103.937 284.226
-59.2398 126.672 213.806
-48.9869 122.308 238.086
-33.0499 138.089 213.805
-76.1663 83.1759 280.358
-64.3567 104.209 261.146
-87.6478 92.4699 256.302
-109.011 106.701 170.415
-101.721 96.3066 225.235
-90.5193 114.122 196.076
-82.3029 267.042 6.49003
-94.3888 277.365 -9.96655
-37.5963 235.036 54.9293
-63.203 255.327 24.6595
-39.1378 307.329 -15.1967
-47.1426 286.463 4.55321
-25.7161 289.523 6.51843
17.694 124.337 258.681
4.16539 135.708 237.559
31.4049 163.384 139.829
18.7367 144.677 215.829
44.2363 142.421 212.857
-7.94266 143.657 216.523
-16.7631 164.131 136.715
96.7213 289.347 -11.686
86.135 277.959 4.37105
119.622 258.466 9.89791
32.5063 288.332 5.07763
61.4846 289.113 4.05605
49.5721 309.113 -16.5739
78.0579 224.732 51.4402
68.8707 262.304 24.3105
45.9803 234.751 58.4905
-11.2429 234.818 66.4569
18.4957 233.824 68.2621
1.07018 265.614 35.3073
-79.5073 301.003 -34.3878
-124.126 273.802 -25.1596
-27.5782 321.711 -38.0819
-52.3205 317.918 -38.2361
-92.541 300.438 -73.0002
-70.1904 317.79 -54.9284
-64.5959 321.658 -74.0225
120.257 286.59 -33.4614
91.2924 310.437 -36.7663
76.7315 326.074 -75.6146
85.8783 323.09 -55.0295
105.519 310.698 -74.6446
65.6384 320.483 -37.9194
34.2601 321.683 -38.8782
-21.103 231.089 -183.402
2.22103 258.506 -166.414
26.3493 232.074 -184.48
-47.1459 307.725 -110.289
-25.0123 283.929 -137.061
-61.6289 279.578 -130.813
72.643 283.407 -132.663
30.4992 283.695 -137.025
55.6815 309.222 -110.378
2.56025 326.187 -53.6315
33.375 327.711 -78.3146
-27.3293 327.66 -78.2335
-152.253 259.1 -32.2169
-157.844 245.43 -13.6854
-119.925 269.226 -88.024
-137.203 267.653 -59.0819
-196.33 209.215 -31.9475
-173.578 238.343 -43.6432
-187.995 213.047 -57.9686
-37.1813 182.499 -203.713
-55.7401 214.505 -185.305
-115.365 167.249 -171.785
-87.0476 190.386 -181.518
-99.576 139.85 -204.484
-74.4903 239.17 -158.888
-92.9565 255.979 -125.646
-162.862 100.601 -95.9179
-163.891 118.459 -108.546
-158.598 70.4845 -133.382
-189.188 186.413 -73.5816
-179.681 172.35 -84.6779
-195.67 188.973 -49.7197
-139.959 102.62 -175.235
-157.555 133.339 -127.175
-143.446 144.75 -148.861
-140.864 232.632 -111.606
-149.047 192.924 -128.803
-174.042 206.268 -94.055
-169.942 222.672 -0.865654
-197.689 195.24 -27.6688
-190.652 205.093 -13.4808
-178.598 198.307 12.4352
-178.713 181.785 19.966
-159.567 66.6611 -92.5829
-172.807 135.368 -51.593
-194.6 126.612 -14.4021
-196.833 138.372 -19.8598
-176.939 59.4337 18.3273
-201.22 174.693 -34.0066
-197.588 185.378 -34.3187
-153.823 31.4179 173.036
-159.321 8.68306 189.093
-167.121 164.583 50.8188
-143.495 82.6492 113.591
-168.951 2.78059 85.1357
-156.889 44.2922 108.439
-168.597 73.8889 20.2025
-195.366 194.413 -27.3958
-187.335 169.611 -24.1852
-191.698 187.89 6.22738
138.207 234.345 22.3413
151.235 239.759 9.69405
75.6048 160.967 117.688
118.547 220.482 38.0269
161.103 203.643 19.5844
145.114 214.806 28.79
127.717 147.358 77.5163
29.4148 104.136 285.121
47.1992 116.695 262.875
97.7854 95.7493 262.087
75.1533 106.686 264.841
86.679 86.1841 285.442
59.4177 126.201 238.948
66.6055 132.827 215.907
176.186 26.4237 198.389
161.819 43.9358 218.423
168.521 20.3515 230.462
138.933 91.0595 175.804
151.467 66.7886 203.326
151.353 78.4047 156.875
132.947 58.3632 266.438
143.42 63.3831 238.066
125.711 78.3498 251.241
95.5449 119.966 207.124
110.567 99.6796 233.399
120.071 105.975 191.689
-21.8904 82.6913 306.679
3.28002 91.7063 303.856
-80.0568 59.9887 298.228
-53.4527 71.7875 305.125
5.59539 32.7082 345.231
-22.3687 53.3719 328.387
-20.5867 22.3901 345.619
-154.54 -18.3246 232.676
-144.539 6.73856 250.929
-119.873 -44.1734 293.478
-134.161 -19.2145 273.837
-140.412 -75.1487 275.828
-128.81 26.4508 270.132
-110.727 41.2262 284.135
-1.44107 -121.011 324.177
-42.9858 -105.868 328.45
-49.2189 -161.073 325.508
-18.434 -9.38256 356.6
-25.3175 -41.8843 349.294
6.39217 -17.5896 365.164
-103.743 -123.351 311.886
-73.6365 -89.6021 327.089
-96.8722 -71.1506 316.921
-86.4912 27.0856 311.359
-91.1266 -14.2735 317.736
-52.432 8.29048 337.192
-160.196 -21.3186 176.747
-159.061 -29.8439 207.655
-174.399 -21.3946 74.668
-170.542 -22.496 116.473
-156.409 -115.907 201.785
-159.115 -64.2415 163.389
-158.188 -97.9544 149.832
-149.841 23.6133 -104.667
-151.839 -1.27076 -52.1501
-170.688 -106.92 0.0868682
-168.012 -75.4832 -8.18115
-162.056 -106.64 -25.5464
-167.801 -24.734 12.8141
-173.716 -23.9809 35.8639
-137.09 -205.374 70.1804
-155.215 -184.329 38.2096
-146.687 -206.627 21.9448
-148.94 -151.799 108.549
-158.753 -159.751 61.694
-147.108 -157.351 167.491
-164.423 -158.519 -4.74603
-166.715 -159.827 22.2986
-170.664 -136.808 10.7807
-173.263 -61.2451 44.5145
-172.079 -109.132 20.8
-168.527 -97.1391 61.5477
-151.052 55.1888 -152.515
-151.874 41.993 -130.889
-125.782 85.693 -197.819
-139.903 69.798 -177.958
-128.524 18.3967 -161.28
-135.26 41.3511 -172.254
-116.809 27.7061 -186.891
2.45526 151.098 -222.343
-39.0605 136.764 -227.832
-35.4641 73.2252 -239.76
-37.0358 100.098 -239.701
5.07872 83.6555 -246.458
-74.8278 121.273 -226.896
-100.835 106.768 -218.242
-52.9352 -57.4 -144.525
-34.7211 -14.8975 -197.684
2.86666 -19.6153 -192.981
-87.4213 8.08519 -197.1
-63.1863 -4.80581 -198.428
-77.3866 -24.5902 -171.437
2.55589 24.2368 -228.12
-35.9195 8.23002 -217.505
-37.083 34.8001 -230.804
-102.555 70.6884 -218.473
-71.5564 52.7795 -229.94
-97.8436 37.314 -211.144
[...]
POINT_DATA 642
SCALARS Mean_Curvature double 1
LOOKUP_TABLE default
0.0185043
0.0197379
0.0152998
0.015828
-0.00586264
0.0172043
-0.0125284
0.00223916
0.0292784
0.0166733
0.00864818
0.0211828
-0.190483
0.0118909
-0.000623657
0.00422905
-0.00500318
0.0174824
0.0123171
0.0127401
0.086427
-0.0102782
0.0137134
0.000157352
0.00935709
0.0143311
0.0111043
0.00634684
0.00232601
0.00615716
0.0111856
0.0107152
0.00863154
0.0108537
0.0126857
0.0165836
-0.00212021
0.0168592
0.016981
0.00632899
0.00809012
-0.000998276
0.0190741
-0.00819669
0.00794706
0.0121361
0.00942082
0.00329526
0.00942138
0.00680979
0.0124088
0.00836096
0.0135408
0.0102885
-0.00415677
0.018156
0.00755391
-0.00305133
0.0375546
0.00427707
0.0246807
0.0311921
0.00987184
-0.000808772
0.0097824
0.0121214
0.0182261
0.00788127
0.002399
0.00330188
0.0189983
0.0120405
-0.0858413
-0.01568
0.168828
-0.0284478
-0.00104494
-0.00106323
0.0229921
0.012912
0.00688225
0.00798516
0.0052398
0.0112187
0.00927212
0.0131197
0.00245667
0.0119279
0.00759077
0.00462842
0.0121754
0.00509308
0.00030877
-0.000708193
0.00891943
-0.0309384
0.0074957
0.0101155
0.0176728
0.0223719
0.00774614
0.0125402
0.00801078
0.0139391
0.00850871
0.00563503
0.00574157
0.0229002
0.0167485
0.0183757
0.00932365
-0.00974036
-0.0297122
0.0223824
0.00871828
0.00402589
0.0198179
0.00312138
0.0178757
0.0145967
0.00951151
0.00721777
0.00894922
0.0175984
-0.00876686
0.0120545
0.00648998
0.0143228
0.0127425
0.0186676
0.0182998
0.0151815
0.00935755
-0.00477831
0.0103994
0.0166589
0.0267716
0.0239888
0.0133747
0.00236224
0.013549
0.0122505
0.00170644
-0.0123288
-0.00505249
-0.000498626
0.00916293
0.00767068
0.00826953
0.00964018
0.0117983
0.0149741
0.0152454
0.0102174
0.0117644
0.0238044
0.0159669
0.0128424
0.0106322
-0.0101287
0.00841694
0.00391084
0.0146744
0.0125091
0.0177775
-0.0463459
0.00736535
-0.00518626
-0.0052758
0.00798927
-0.003343
0.0123553
0.0117376
0.00896684
0.0123126
0.0130644
0.0122255
-0.0823889
0.0245202
-0.0577394
0.010056
0.00972136
0.00795868
0.00442129
0.00796239
0.00771178
0.0119719
0.0114799
0.0115075
0.00402365
0.00890631
0.00772222
-0.000669506
0.00520178
0.00115353
-0.000817707
0.0178174
0.0076556
0.00809934
0.00917285
0.0100459
0.000601131
0.00867254
0.012969
0.0109976
0.00378484
0.0108125
0.00320175
0.0116307
0.000171658
0.0127016
0.0134262
-0.00302442
0.00153847
0.00378623
0.0101245
0.00827854
0.00615346
0.00899233
0.0158046
0.0162843
0.0128267
0.0183074
0.0264162
0.0271311
-0.000725417
0.0126412
0.0259807
0.033859
0.0251025
0.0136435
0.0104766
0.00898599
0.00987475
0.00939523
0.0182792
0.00622399
0.010232
0.0117943
0.0024972
0.0132741
0.0120526
0.0179453
0.0208035
0.0259229
0.0117976
0.00714203
0.013507
0.0395059
0.0183266
0.0152738
0.00201102
0.0118081
0.00384094
0.00574529
0.0110137
0.00993995
-0.000333886
-0.00110769
0.00747551
0.0161513
0.0443077
-0.000599722
-0.038437
0.00980438
0.00422304
0.00346523
0.0108769
0.00928601
0.0167398
0.00890393
0.120593
0.0180865
0.0224273
-0.102281
0.00430664
-0.0118991
-0.0808158
0.0859337
0.0420715
0.00605493
-0.0635495
0.00282368
0.00951311
-0.0772655
-0.00595813
0.00360177
0.0024163
-0.0125471
-0.0525749
-0.0276284
0.0946799
0.017668
0.017355
-0.000187629
0.00298722
0.0064052
0.0121336
-0.00120321
0.00570855
0.00794524
0.0123347
0.0120836
0.0138498
0.00971233
0.00612672
0.0145741
0.00777344
0.00907987
0.00601516
0.00681113
-0.000251836
0.0142838
0.0104503
0.01294
0.00588868
0.00830012
0.00554559
0.00843648
0.0161114
0.0115328
0.0116658
0.0115545
0.0086517
0.0115135
0.00998879
0.0109358
0.00270076
0.00817439
0.0129432
0.0126865
0.0125021
-0.00532158
-0.000257867
0.00740371
0.0179233
0.00737229
0.0341988
0.00835152
0.00927554
0.00913858
0.0102109
0.00869751
0.0101989
0.000459738
0.00581934
0.00891569
0.00876648
0.00121644
-0.00262654
0.000272089
0.00830869
-0.00228516
0.0123446
0.00655443
0.00447773
-0.00327943
0.0180395
0.00757351
0.0066739
0.016194
-0.0172824
0.0494737
0.0314825
0.0166134
0.0162601
0.0159477
0.00363106
0.00687415
0.00075025
0.0195815
0.00944341
0.0136149
0.014074
0.00773695
0.0123689
0.0125541
0.00171641
0.00818195
0.00925313
0.0123973
0.0212322
0.0155622
0.0179965
-0.00780174
0.00980745
0.00133012
0.0126676
0.00947689
0.0289731
0.00894889
0.0133374
0.0107947
0.0168415
0.0158724
0.0163347
0.00924531
0.00227032
0.00178376
0.00924074
0.0104095
0.00909258
0.00504387
0.0146022
0.0184543
0.0218728
0.0102686
0.0255586
0.0104203
0.00647994
0.0228645
0.0117174
0.0280659
0.00137911
0.00529463
0.0099331
0.0180014
0.0126348
0.0173119
0.00987218
0.0174299
0.00551076
0.00938546
0.00187117
0.00623746
0.01733
0.00704539
0.017353
0.0166257
0.0134959
0.0189279
0.0128517
0.00871093
0.00948569
0.0123469
0.0152173
0.00548423
0.00113394
0.00714404
0.00922669
0.0214762
0.0224144
0.00502288
0.0153066
0.0181512
0.0184309
0.00664824
0.0142747
0.0114784
0.0188626
0.0162556
0.0120835
0.0138019
0.0135642
0.0170812
0.0084679
0.00662675
0.000738226
-0.0112684
0.0249297
-0.00656159
0.0117907
0.0175424
0.0176629
0.0146577
0.0109915
0.011496
0.0133586
0.0067615
-0.00438688
0.00418516
0.00785527
0.0114324
0.0116933
0.0186693
0.0289777
0.0312594
-0.0102409
0.0198309
0.0164695
0.0112349
0.00644448
0.018064
0.0202366
0.0127063
0.016412
0.0184729
0.0175328
0.0205498
0.0168338
0.0139725
0.00942779
0.000288429
-0.00818353
0.00443546
0.0102223
0.0118763
0.00733503
0.0131274
0.0142007
0.0116516
0.00106291
0.0145379
0.0122668
0.0184576
0.016399
0.0148999
0.0165527
0.0113733
0.0211673
0.0143946
-0.00651695
0.0142175
-0.00680884
-0.014301
0.0206635
0.0221443
0.0169174
0.0106072
0.0402488
0.0153115
0.00961349
0.00241792
0.00527787
0.0066955
-0.00909689
-0.0107814
0.0163029
0.00555518
0.0129305
0.0152605
0.0140717
0.00204703
0.0376593
-0.0111961
0.0039087
0.000707867
0.00333576
0.00114929
0.00770721
0.00598373
0.0144144
0.000910526
0.015487
0.00255764
7.10215e-05
0.000972674
-0.00115198
0.0224594
0.0274295
0.00317589
-0.000220958
-0.00290012
0.00482219
0.00421171
0.0135954
0.0233301
0.0082674
0.0121229
0.00979626
0.00961705
0.00830571
0.00577598
0.0125809
0.00829911
0.0122315
0.0123759
0.010322
0.00871379
0.0142682
-0.000385779
0.0123727
0.0140874
0.0112896
0.0168314
0.019253
0.0104467
0.0167024
0.0156315
0.0176113
0.0129457
0.00464517
0.00297608
0.0151229
0.0102342
0.0177364
0.0192205
0.0186596
-0.0438219
0.0129782
0.0285586
-0.0826705
-0.0106419
0.0195986
0.0127985
0.0134869
0.0164543
0.0139033
-0.0409232
-0.0120047
-0.0587076
-0.0139767
0.0113164
0.0129425
0.0142458
0.00627634
0.0130191
0.0123587
0.0116901
0.0185963
0.0151239
0.0087481
0.00920301
0.0121924
0.00914859
0.0123413
0.00741511
0.0158499
0.011716
0.0164676
0.0165692
0.0148159
0.0118281
0.0158932
0.00703104
0.0296962
0.00399003
0.00207454
-0.000185796
0.00365401
0.0279922
0.0227715
-0.00319559
-0.0210609
0.0216106
0.00314926
0.0206327
0.0297639
0.0238071
0.0247305
0.0303379
0.0231174
SCALARS CoVolArea double 1
LOOKUP_TABLE default
729.39
801.756
1038.61
1109.89
1691.33
634.495
4034.57
1609.83
411.697
701.522
667.845
606.816
624.942
858.425
3460.25
2391.48
1382.97
1387.39
1441.13
1377.58
347.304
1386.36
873.54
2312.96
1513.1
758.284
759.147
1498.92
1324.87
2343.61
628.192
1528.23
1509
1688.49
1518.76
1348.51
3399.73
915.768
986.057
2450.47
935.141
2028.81
540.684
3054.88
899.406
743.471
1082.87
1503.4
687.452
903.874
877.879
1168.43
843.546
738.65
2314.43
699.562
1297.31
1105.89
744.888
1048.8
831.282
852.669
1526
1993.12
1637.06
1477.21
658.234
1596.16
2060.85
1196.86
1181.76
1144.07
236.54
4353.81
270.618
3975.92
1725.9
3036.59
413.356
921.912
843.992
984.363
984.899
910.654
1223.81
1004.09
1232.36
1342.71
2245.4
1821.98
1416.72
2335.78
1398.4
1966.61
1040.17
2361.29
1395.07
780.339
869.914
808.96
1520.26
1173.73
976.801
1003.65
1124.54
1994.2
1697.52
805.479
1432.65
1027.55
1517.86
1022.48
2271.6
1063.4
1585.89
1447.08
964.074
1200.53
1572.96
1542.28
1630.21
2201.65
1743.27
1552.38
2089.32
1544.28
1946.21
1485.05
1414.63
949.613
878.34
1256.2
1480.56
1691.03
1239.21
944.909
719.064
1075.01
1430.14
2064.2
1634.05
1008.62
1747.77
3381.04
1073.53
2732.92
1253.14
1703.82
1419.97
1209.52
1020.6
1372.64
815.822
1535.77
969.209
1398.11
960.936
1125.96
1209.16
2107.65
1039.47
459.205
644.291
517.184
733.704
1938.93
1263.19
675.207
2866.76
2031.44
4164.27
748.802
702.409
598.118
816.43
709.704
732.515
1599.83
1061.64
1347
727.33
802.544
813.155
2279.24
744.769
1458.32
802.932
750.264
830.518
1977.96
1096.25
2352.37
1008.92
1060.66
2339.21
1272
784.602
843.002
1275.92
789.448
665.17
2125.22
1340.08
1229.15
1326.92
2252.16
905.036
849.429
786.101
1456.45
799.481
937.584
2452.43
1181.03
2031.17
2048.17
2216.2
1664.08
965.223
1006.43
945.088
620.627
1151
709.601
1002.91
1017.13
768.977
1093.4
634.829
988.759
650.706
1021.27
1606.43
1729.76
1658.22
1496.02
1734.06
1420.57
1477.18
1843.93
1636.29
1162.46
1663.81
1564.89
894.012
738.7
1755.77
1273.18
544.004
972.72
1002.75
1859.83
1596.07
1959.41
1714.39
1361.84
1654.86
1919.02
1316.81
1320.99
856.235
638.206
839.719
339.268
1228.39
1406.48
1777.89
1986.5
1964.7
1365.97
686.197
189.244
520.046
505.038
304.814
2584.56
2260.38
749.309
1406.74
1956.63
666.982
111.21
1568.93
896.782
1152.32
2722.54
2146.75
3929.76
4134.24
264.188
2129.38
766.977
621.182
643.55
3239.38
2042.94
1077.28
1367.58
2489.38
907.301
875.323
799.277
745.017
792.776
735.367
1749.31
675.133
842.533
910.148
1939.03
997.913
2011.76
816.568
783.82
803.831
2279.74
1031.27
2239.57
976.229
856.181
1060.41
1004.83
975.536
1076.15
1079.01
1097.64
1077.72
1676.54
1308.45
1275.54
936.004
992.683
2952.17
2260.52
1739.02
1096.06
1671.46
831.639
1396.8
1869.85
1863.15
1430.97
1877.75
1550.76
1685.21
1038.81
1525.71
1720.59
1350.69
2216.41
3124.81
1438.99
3876.2
746.273
1914.09
1180.84
3067.44
1503.13
2074.9
1372.89
925.838
2660.71
1121.64
1055.71
718.285
783.336
640.867
1631.87
1055.61
2966.23
704.081
644.195
986.265
822.712
1566.85
731.692
875.928
2064.15
1738.06
1276.39
1261.4
1048.09
1269.25
1108.01
2886.09
1480.31
2926.77
958.506
1019.86
1120.2
1263.13
1050.5
1308.5
1143.56
1262.38
1047.85
1685.58
1924.54
1811.58
1647.72
1468.21
1696.52
1956.81
902.206
1034.36
981.867
1061.3
683.571
1164.26
1641.38
640.156
1256.27
637.248
1960.91
1582.9
1298.88
701.393
1305.9
925.501
2025.84
1484.81
2092.48
2100.41
2261.45
1794.61
846.986
1429.33
1362.58
1148.71
1085.31
1397.5
1213.65
1202.77
1037.72
1285.77
1093.02
1370.65
1123.54
830.049
749.868
1527.81
1209.54
1941.51
1641.89
1360.51
1492.01
1648.46
1261.72
1465.67
1214
1553.11
1707.12
2097.42
1432.62
1256.41
1664.6
2527.63
2676.7
4563.66
1523.32
1990.08
1614.01
1950.96
1404.42
1993.27
1725.84
1437.52
1960.76
1675.94
4163.24
2183.09
2141.36
1149.85
1492
1162.33
1596.12
1548.95
3151.1
1005.19
974.853
1802.8
1170.7
916.515
964.066
1159.24
888.933
943.172
1027.83
871.774
864.907
1014.82
1708.37
2931.15
1979.93
2782.61
1346.7
1517.63
964.083
852.53
1410.34
1195.1
1920.74
1749.49
1855.4
916.976
1002.27
1016.12
950.286
724.21
786.788
841.856
2905.58
1222.83
3470.4
923.284
1205.35
898.591
913.93
1060.82
1069.76
714.051
1164.64
1482.8
1596.74
1740.52
1613.69
4061.2
1061.63
2597.1
1045.7
1220.5
833.535
854.095
1401.07
3018.25
1447.43
2891.82
1594.81
2881.95
3340.63
1955.58
825.857
1510.8
730.862
3122.89
2166.07
1650.49
2009.48
1467.75
1048.92
1575.92
3179.82
2658.47
2148.88
2160.3
1661.84
889.096
1229.11
1137.43
1095.19
1391.97
1799.07
1045.46
1007.37
1078.05
1023.96
1113.49
1880.05
1463.62
1371.02
2186.03
1270.51
1161.16
1423.83
819.133
1237.89
1308.7
1230.21
1366.26
1445.11
1061.01
708.869
848.711
1014.39
1206.96
1364.48
1219.52
930.946
1015.28
937.334
853.28
925.568
3461.48
827.03
890.679
814.331
867.751
987.231
778.588
3857.1
1287.38
977.056
937.932
1113.93
1047.99
2568.16
766.5
974.21
831.757
843.204
1104.9
1482.6
1302.22
1113.12
1095.67
1050.93
1772.86
1294.3
1377.47
1180.43
1141.22
1209.67
1343.3
1291.42
884.898
1925.03
1905.41
2294.44
3049.65
1416.55
431.873
765.336
2740.21
2930.02
561.506
1412.42
390.409
471.006
475.164
906.33
418.687
1323.01
SCALARS SignedDistance double 1
LOOKUP_TABLE default
65.5667
65.9414
53.1213
48.6143
51.2786
64.9085
72.0414
48.0447
72.1243
63.903
73.3366
71.4595
124.416
63.1069
79.1673
79.4824
65.1538
39.6642
44.7329
51.8055
77.5608
79.0691
60.4531
86.0884
50.7815
49.4581
66.091
69.787
51.7159
65.1744
65.4566
47.7336
64.937
48.8302
40.3143
43.5208
59.1447
52.4229
53.3413
64.5003
60.5303
70.8257
80.8658
94.9552
77.611
66.2081
74.4895
76.5471
69.8255
71.8545
63.1241
72.4167
66.8778
68.9431
81.2256
65.0619
71.3632
75.1939
55.6313
60.7489
56.751
55.9452
43.6449
47.7478
42.2928
46.9529
62.2445
47.0822
50.9811
72.1227
69.5511
64.0026
87.8747
89.9568
92.2895
104.321
72.8818
79.4198
74.8144
61.8407
68.3797
71.0367
69.6075
63.4857
54.3728
55.9546
62.2495
55.8408
48.9155
51.0949
45.2945
68.7151
68.8774
75.9808
70.8114
75.6373
68.6467
59.2666
56.4446
72.614
45.7856
48.1012
87.0101
56.615
59.9679
46.3954
46.5898
60.7999
46.2868
57.1165
64.1851
77.0309
75.3481
58.4888
63.2656
56.5283
61.1683
64.3497
34.8791
39.5099
45.8516
58.0283
48.3635
34.1327
52.3444
47.8866
58.1563
67.5046
47.098
43.1447
46.3917
46.8597
67.6721
66.2835
67.7692
54.1325
60.0085
86.2543
66.2893
72.2281
65.5308
66.9639
63.2052
81.2017
71.3371
67.0715
68.8631
47.9285
53.9213
53.3604
59.585
42.6422
66.1242
65.8486
56.4797
72.8208
52.7977
55.4376
47.6886
84.825
77.2382
72.623
70.83
76.3711
72.3293
111.846
86.7031
95.4104
80.2528
83.8089
81.6822
68.8824
72.1012
73.2903
68.5587
70.1913
63.9549
95.7954
76.4153
82.4442
67.1798
67.8116
63.9228
73.8224
70.6551
72.7945
62.8377
67.9098
67.8735
81.0933
73.425
78.745
73.5558
69.8957
76.0393
75.5063
65.0459
70.6051
68.9901
67.3202
70.2062
81.2804
75.0114
73.0736
74.046
80.6143
68.3384
71.577
72.4482
67.6739
69.6236
64.455
76.3712
72.8077
75.2179
76.4557
76.2941
68.6901
62.7359
59.5248
58.3583
58.09
52.7261
56.0104
47.3032
61.8929
58.1178
44.1413
53.8369
46.6714
57.7461
63.2868
45.5968
42.3192
45.0502
40.5967
44.5873
45.7145
44.2219
45.3772
41.8278
63.2301
53.0442
45.8309
56.2097
61.6765
47.4272
49.4195
70.2047
53.5235
55.9123
48.0518
45.8042
52.2886
47.6385
47.7933
45.5586
49.1187
74.1837
75.8872
70.5247
69.8872
69.1925
72.5146
57.012
73.8885
65.0361
46.1062
59.9289
56.9728
69.1223
78.7703
75.994
86.6941
96.3177
77.4388
81.8975
111.328
106.406
98.2307
86.2998
78.8276
74.7743
72.3921
118.378
80.6078
75.3948
74.5263
95.6539
76.9338
80.9721
94.1079
73.8896
68.7426
76.9842
80.9111
78.1854
79.5181
84.0601
63.1832
65.9511
65.5817
65.8979
60.7778
68.0234
70.33
67.9948
66.655
63.5376
74.9316
69.5909
74.1173
61.2128
67.1507
65.8021
71.9047
69.3333
73.7915
59.9436
60.3285
58.3982
57.9893
52.8262
55.7768
51.8115
65.479
63.9195
55.5826
58.9438
58.7677
61.1716
59.3404
50.3722
50.3057
47.4618
49.3132
49.0438
47.8022
46.9108
48.9817
51.4493
54.7162
52.0316
52.663
71.4494
70.2761
72.7492
72.952
67.5542
70.2034
69.3472
82.8027
81.893
67.6567
71.0585
67.3533
75.062
74.7521
61.7107
61.4691
56.4138
76.3823
68.5358
74.2243
61.8596
63.4722
67.64
70.3562
69.1355
67.3764
67.7224
73.8173
53.2731
58.5753
65.8179
62.1789
59.5724
47.1676
45.9566
50.8804
47.2341
49.1736
44.7177
47.2351
88.8219
65.4339
66.3322
60.7603
63.861
74.3834
54.0788
57.2931
51.41
49.2
50.1296
54.6458
45.12
47.6017
47.5429
43.6467
45.6428
45.2208
48.8866
60.1745
53.3399
58.1226
50.5565
64.5492
53.5976
47.0836
65.7673
66.902
71.4727
57.0709
63.7374
50.7472
69.7602
71.0591
61.8934
43.5495
52.8313
55.2359
57.3103
77.1762
74.6946
62.4187
62.9211
69.4158
50.2598
57.6138
47.7785
60.0812
61.8473
65.6704
50.7281
58.311
53.8934
63.3296
62.946
62.4867
47.3245
45.0151
47.2457
35.6256
34.1536
34.4345
45.4885
43.1837
44.21
58.0091
47.229
45.3566
76.3329
47.0417
51.5279
57.4216
50.1161
78.0449
69.8772
42.3207
44.9227
39.0832
39.2341
34.5589
45.0518
40.4167
49.3675
77.7973
78.3967
77.5587
79.6266
49.608
48.6933
60.322
50.5867
61.3177
55.9006
60.2134
46.4772
44.5991
55.55
49.4517
46.3346
45.4198
48.897
49.1685
46.122
47.8675
44.873
47.9174
49.6124
49.7041
81.4897
79.4461
80.4641
56.0839
68.2513
59.338
59.0893
63.5074
55.175
57.1696
50.9973
58.8838
47.262
51.0925
50.2873
47.1698
61.2316
54.2188
59.3842
87.0344
81.7724
82.9738
85.6742
74.6487
69.8185
57.8653
81.0658
87.8956
69.629
62.1067
70.0264
64.6706
62.777
92.6678
76.8145
58.1694
63.5721
61.2248
57.9928
58.5941
61.7316
62.7487
71.3006
73.8014
85.3804
70.7132
68.7123
72.1617
67.9876
70.9556
66.5393
67.5782
63.9242
65.3485
70.2763
68.5454
71.1528
75.053
71.6215
68.3169
48.5714
47.1884
49.334
46.2461
49.0457
59.3723
55.5681
57.5114
54.7794
50.3104
59.4424
51.1139
55.6134
56.1569
55.5692
50.4318
52.5459
50.1084
78.5699
50.6474
59.5871
67.4539
66.4153
42.5806
49.0607
44.4086
36.9096
39.8222
68.4764
66.8606
67.2639
64.8298
57.4133
53.5282
57.0926
65.0137
82.6031
57.5239
69.6676
89.9621
85.0148
53.0302
61.614
57.6489
51.353
52.7933
90.2118
81.536
96.6668
77.5985
66.9099
57.9654
64.0173
65.7303
60.7373
57.2094
57.8668
54.324
48.4763
65.1726
51.7406
57.4784
62.7776
59.5872
46.0995
45.001
45.831
45.3697
50.8286
52.6347
49.6677
47.3016
69.7794
73.9527
69.812
71.9124
84.2176
76.2456
72.9749
74.7222
78.6468
90.1749
67.9379
76.1663
74.3477
70.7457
71.1578
91.278
77.5164
83.5105
