# vtk DataFile Version 4.2
vtk output
ASCII
DATASET POLYDATA
POINTS 642 double
-168.197 310.961 26.7802
167.034 318.426 24.4093
-171.216 -267.508 47.6438
180.973 -274.918 48.2379
1.20963 -185.494 371.407
1.70085 167.991 328.346
2.13089 -122.596 -192.729
1.34646 225.111 -248.578
255.731 46.2479 -130.873
250.085 15.8657 231.918
-238.302 45.548 -128.399
-235.438 18.1332 227.297
-220.689 182.242 105.644
-143.606 107.005 316.133
-70.9646 235.171 172.52
75.92 238.83 177.323
1.43353 368.692 17.4814
110.409 337.743 -131.185
-102.973 332.64 -128.367
-162.054 137.714 -233.201
-264.764 204.643 -54.6211
-254.879 29.4171 47.942
150.55 110.094 321.5
209.816 173.889 111.012
-164.434 -100.728 339.329
3.3236 16.4134 414.392
-235.941 -146.011 -39.0364
-232.27 -153.605 187.465
2.4841 45.0788 -297.148
-145.081 -41.086 -215.842
263.761 210.996 -60.2732
168.343 140.158 -236.772
248.668 -158.081 190.514
174.31 -102.063 344.177
118.022 -285.819 257.834
-114.229 -283.142 256.236
0.595913 -311.697 47.7099
-104.055 -253.854 -105.46
110.881 -256.786 -107.69
151.766 -43.3354 -218.969
246.184 -155.169 -41.3295
269.498 17.733 55.3292
-208.608 252.733 67.0748
-165.657 207.972 134.171
-131.865 295.552 84.5864
-199.358 63.849 279.558
-184.814 130.714 238.485
-224.253 86.7891 196.367
-39.7518 203.072 272.482
-112.542 174.376 270.354
-73.2438 143.142 332.979
-49.3828 326.441 83.4286
-82.6471 358.544 20.1507
45.0176 204.602 272.848
3.11359 244.613 186.112
90.7626 362.516 20.2472
55.5845 327.534 82.8445
131.143 300.65 82.6124
-58.6691 383.349 -52.0085
-139.807 339.711 -48.8106
147.352 350.624 -51.639
63.3219 385.404 -52.4266
-54.7829 288.544 -199.219
1.46594 347.519 -138.675
58.835 290.061 -200.599
-198.15 275.822 -96.5064
-227.085 271.588 -14.128
-88.3261 185.358 -253.501
-139.749 243.238 -187.826
-257.454 147.73 -87.2499
-226.533 185.655 -143.063
-213.516 88.9996 -185.599
-260.212 205.737 26.1852
-243.715 61.5461 -39.2987
-274.296 152.054 -16.779
-236.342 147.497 67.3646
-245.172 15.9775 150.92
154.628 211.512 142.047
210.193 257.001 64.5043
79.386 144.437 336.037
118.487 177.185 274.356
238.147 85.1827 199.597
191.982 131.742 245.772
209.332 65.086 284.8
-76.3171 67.8893 377.478
2.57067 99.7695 380.854
-209.532 -44.5809 288.867
-159.764 17.7147 340.314
1.0942 -70.3804 403.71
-81.3692 -35.84 389.773
-93.6921 -150.892 373.289
-250.602 -62.2139 108.921
-237.567 -77.178 215.623
-227.788 -60.6647 -82.3509
-253.795 -72.6739 3.95117
-206.244 -204.29 122.26
-243.88 -154.801 42.7759
-215.313 -215.627 -0.607467
-167.05 42.5301 -240.642
-205.203 0.1977 -177.18
1.97199 126.832 -292.086
-89.1283 93.5006 -285.121
-81.9336 -89.521 -218.597
-85.6732 -7.03171 -271.283
1.34156 -37.6474 -268.292
145.242 247.666 -192.071
91.9897 187.307 -255.581
228.589 275.094 -17.1739
202.367 282.729 -99.6472
226.36 87.9631 -190.674
228.749 187.904 -148.231
262.718 133.677 -93.2587
220.908 -212.495 123.271
209.201 -233.269 222.476
154.062 -284.175 173.809
221.062 -45.4389 294.169
235.128 -138.447 271.997
255.693 -80.5377 217.643
67.0901 -249.042 335.092
157.316 -206.28 324.618
98.2294 -154.388 374.555
63.8771 -316.172 180.134
102.829 -309.482 46.815
-63.603 -247.357 333.026
1.11724 -294.655 264.221
-96.2747 -306.956 47.2295
-60.8653 -314.535 179.733
-146.193 -280.08 171.638
66.9823 -305.225 -35.364
153.826 -282.046 -35.686
-145.656 -276.202 -33.6935
-63.0671 -305.085 -35.1385
62.4904 -206.502 -156.804
0.827415 -259.784 -110.67
-57.8334 -205.94 -157.063
195.96 -217.746 -81.9851
230.375 -222.667 -2.58565
86.0322 -91.9417 -220.1
135.828 -179.404 -153.378
240.391 -56.8778 -82.9352
207.604 -121.702 -117.914
216.183 -0.505337 -181.825
255.081 -162.226 43.0321
256.677 51.3121 -50.8325
268.422 -77.4372 4.38147
263.482 -64.7993 111.81
263.519 17.9157 157.808
85.1621 -33.0342 396.342
167.371 18.0044 346.925
81.5894 68.0261 382.588
-195.97 -224.554 223.226
-151.77 -201.983 319.594
-220.763 -138.615 266.32
-128.415 -175.18 -149.987
-184.425 -212.014 -77.5074
-201.047 -115.013 -114.924
175.093 42.4642 -244.705
88.6833 -7.42501 -273.314
91.1679 93.5702 -288.36
251.829 108.591 77.0531
274.686 147.667 -20.1452
257.616 212.623 23.3205
-191.943 283.11 48.2532
-173.058 277.041 77.6382
-150.159 305.556 59.2804
-197.194 196.314 121.97
-190.781 244.911 92.9482
-220.631 219.546 83.7993
-106.51 281.099 106.838
-154.205 267.698 99.0634
-119.873 221.353 151.346
-219.84 41.6162 254.962
-216.131 75.2246 238.751
-232.208 52.6604 214.288
-167.575 119.646 279.391
-193.415 99.1485 261.568
-173.813 85.8567 300.089
-211.673 139.62 148.155
-206.876 110.731 218.087
-195.091 150.149 180.183
-19.5141 187.962 301.352
-56.901 176.405 304.817
-34.4239 156.937 333.139
-93.7853 198.43 242.639
-77.3099 190.474 273.429
-57.4152 212.979 243.09
-109.661 126.423 327.226
-95.3912 161.217 302.657
-128.896 144.053 295.616
-171.002 167.658 201.054
-151.698 154.55 256.436
-136.544 182.71 225.212
-106.992 327.51 54.9917
-123.52 336.687 22.7526
-63.2943 294.078 113.343
-87.0152 313.3 82.9526
-46.944 368.78 19.318
-65.8164 345.835 52.9555
-29.3298 352.009 52.1739
23.5021 188.454 301.846
1.92544 207.006 275.877
41.9281 244 185.239
23.357 221.598 246.528
63.6402 216.513 242.711
-18.0098 220.378 246.888
-33.8254 242.62 182.812
127.398 345.199 21.4819
110.949 334.583 53.9196
149.484 312.21 57.0821
33.2092 351.245 51.2428
73.5167 348.502 52.942
52.2547 370.121 18.7533
105.865 282.115 110.733
91.2811 318.549 82.2321
68.2621 294.826 115.704
-21.9908 297.824 123.807
25.5017 297.153 124.647
0.758752 327.597 85.7224
-111.182 356.103 -15.4669
-156.339 327.772 -11.3743
-30.3119 382.078 -16.6551
-71.2909 375.153 -16.9182
-123.032 341.636 -87.8151
-98.5876 368.378 -52.7414
-82.6541 364.229 -89.8227
157.045 337.346 -15.3199
119.503 363.235 -16.433
88.8942 367.963 -91.4091
107.461 373.602 -53.4269
131.632 348.99 -89.9194
78.1974 378.483 -16.9163
34.2615 383.229 -16.9003
-27.1002 259.238 -227.593
1.28165 291.996 -204.349
30.0526 259.913 -228.353
-56.297 346.316 -137.996
-29.3743 321.949 -171.629
-80.1165 314.394 -165.205
86.2417 317.619 -167.07
32.5069 322.081 -171.589
60.8416 348.186 -138.62
1.77054 385.252 -52.597
34.2316 373.966 -96.1758
-30.5762 372.654 -95.6391
-190.077 306.387 -30.2931
-200.473 293.806 5.4577
-151.031 306.184 -112.729
-171.601 310.176 -72.5098
-247.991 241.518 -33.7511
-216.181 276.274 -53.4339
-233.903 242.647 -76.2819
-45.0294 207.026 -253.127
-71.1883 241.043 -229.079
-151.293 190.878 -212.277
-113.738 216.439 -223.718
-127.537 161.843 -247.252
-97.6816 269.33 -196.757
-121.671 289.995 -160.096
-244.329 92.0805 -109.373
-237.248 116.03 -134.506
-230.571 65.6981 -156.559
-250.095 196.486 -102.101
-247.851 165.419 -115.016
-267.516 174.55 -72.0452
-190.671 113.491 -212.338
-217.388 139.781 -162.635
-191.736 161.161 -188.453
-172.983 263.626 -143.489
-187.42 214.952 -167.905
-216.357 231.585 -123.253
-220.608 265.307 26.8865
-268.464 208.516 -12.2306
-246.547 239.263 5.82884
-236.029 231.415 47.9873
-245.501 199.629 65.4487
-243.455 54.485 -96.4724
-254.588 111.511 -65.2581
-263.738 116.045 -1.67072
-268.403 122.756 -22.4981
-253.149 53.9052 13.041
-272.347 154.013 -43.0623
-279.301 174.046 -32.7764
-237.201 53.1228 180.7
-242.238 18.3001 195.984
-234.843 169.229 87.4745
-227.631 107.345 134.19
-253.814 15.4853 94.1862
-240.675 62.6596 121.594
-249.976 85.3397 49.3176
-275.248 176.675 1.56083
-266.911 155.523 11.8157
-260.542 180.054 40.7842
173.907 281.531 75.8883
193.351 287.204 47.7568
114.929 227.215 161.363
151.443 271.661 99.9054
219.698 229.84 74.3418
190.13 252.721 87.5028
187.283 194.146 124.439
39.2455 157.155 334.221
62.7528 177.551 306.497
135.682 147.087 300.362
101.904 163.477 306.137
116.028 128.842 331.754
83.4992 192.909 275.26
98.2573 202.689 244.748
246.702 51.665 216.467
227.234 75.9882 243.172
232.254 40.0045 259.784
203.762 141.221 197.071
216.572 109.95 223.654
223.921 120.812 174.046
181.96 88.8423 305.618
202.348 101.597 267.176
175.264 122.812 284.973
138.306 185.66 233.752
157.816 156.932 262.719
174.419 164.773 216.175
-35.4362 124.189 359.995
1.97127 137.015 356.336
-113.146 90.3473 348.934
-76.518 107.728 357.559
3.09531 57.8866 400.899
-36.33 83.6706 383.618
-35.7619 42.1757 400.536
-222.581 -13.5849 259.78
-206.703 16.6921 286.366
-162.993 -40.7215 340.915
-186.777 -13.4969 315.35
-191.653 -72.8901 316.446
-182.198 43.2574 311.88
-154.557 64.9404 331.097
-0.892389 -132.717 380.514
-48.5442 -116.418 384.599
-52.8139 -170.521 378.407
-35.9793 -6.07647 410.53
-40.0205 -52.3499 401.735
3.19865 -20.9893 417.768
-131.693 -127.568 359.444
-90.8957 -95.4642 379.567
-127.084 -72.1541 367.143
-120.385 43.9916 363.179
-124.695 -9.88545 368.689
-78.2888 18.8002 391.216
-242.891 -22.3744 184.689
-238.47 -29.5657 220.518
-257.97 -18.9445 78.6524
-252.513 -19.8561 128.189
-235.054 -121.044 203.867
-240.153 -70.5927 171.238
-237.433 -109.622 153.895
-230.972 5.7322 -117.806
-234.514 -5.69296 -65.546
-247.524 -111.843 -16.7224
-246.042 -75.5061 -30.5315
-235.016 -111.373 -54.4908
-251.058 -22.852 -6.25521
-257.165 -23.0586 29.2272
-190.794 -242.208 80.2996
-215.633 -216.487 46.063
-196.485 -244.15 21.9708
-225.097 -156.364 115.284
-227.782 -184.278 76.0726
-223.293 -182.636 161.655
-227.863 -181.805 -20.796
-232.593 -184.96 22.8581
-244.594 -152.097 2.92955
-254.988 -67.1719 46.8643
-252.225 -115.712 20.8029
-246.105 -109.705 72.2098
-213.051 43.0387 -185.556
-225.147 21.5402 -153.852
-167.799 89.5264 -241.252
-192.346 66.3294 -216.808
-179.015 -17.8392 -199.167
-188.078 20.5274 -211.795
-159.911 -0.625683 -230.852
1.45222 174.225 -272.25
-46.2348 157.612 -277.238
-44.4025 69.0023 -296.576
-45.5685 109.962 -292.298
2.68459 84.689 -301.647
-91.2887 137.61 -274.769
-128.804 117.553 -264.335
-49.2623 -105.669 -211.436
-42.4115 -59.3968 -251.391
1.78394 -68.9789 -245.824
-118.832 -26.4467 -246.246
-83.1605 -44.0801 -251.444
-111.742 -66.598 -221.461
1.60861 1.18193 -285.781
-44.192 -23.2053 -273.298
-44.6953 16.9372 -287.702
-132.235 67.4798 -267.633
-89.2205 42.1318 -284.139
-128.816 17.5171 -261.391
[...]
POINT_DATA 642
SCALARS Mean_Curvature double 1
LOOKUP_TABLE default
0.00934714
0.00740244
0.00839647
0.00886841
0.00187625
0.0109841
-0.0123952
0.00524715
0.0122479
0.00912383
0.0125135
0.0108276
0.00997335
0.00760026
-0.0021244
0.000560181
0.00146204
0.00959426
0.00840798
0.00779105
0.00999899
0.00687296
0.00799753
-0.00188224
0.00483919
0.0113774
0.0100511
0.006927
0.00522728
0.00551375
0.0116755
0.00718892
0.00724058
0.00670828
0.00774979
0.0102532
4.79029e-05
0.00904957
0.00935493
0.00574435
0.00634326
0.00247485
0.00902349
-0.00397362
0.00913569
0.00784932
0.00656242
0.00552509
0.00693117
0.00693435
0.00755083
0.00667765
0.00918698
0.00620644
-0.00152004
0.0102654
0.00526004
0.00566434
0.0162739
0.0070814
0.0137441
0.0144573
0.00666884
0.00269989
0.00653746
0.00771243
0.0126549
0.005463
0.00412488
0.00390772
0.0101985
0.00650884
0.0116001
-0.00653
0.0134301
-0.0113544
0.000132107
-0.00360191
0.0111361
0.00783539
0.00727435
0.00743551
0.00684712
0.00748459
0.00651667
0.00804127
0.00512453
0.00722039
0.00591016
0.0039177
0.00891415
0.00228122
0.00467902
0.00111774
0.00655904
-0.00688978
0.00875358
0.00977858
0.00998069
0.00719288
0.00585774
0.00848447
0.00510602
0.0090952
0.00639725
0.00471255
0.00504688
0.00990269
0.00716795
0.00788611
0.00620095
0.00125659
-0.0031496
0.011217
0.00581484
0.00257273
0.0110807
0.00581866
0.00951009
0.00884053
0.00832787
0.00909919
0.00681791
0.00939496
-0.00267256
0.00699441
0.00884793
0.00827527
0.00680938
0.00953187
0.00942034
0.00920535
0.00431822
0.000326015
0.0068382
0.00863866
0.010575
0.00481965
0.00729988
-0.000369453
0.00639347
0.00747723
0.00390001
-0.00620624
0.00606713
-0.000809771
0.00607077
0.00544533
0.0068208
0.00690041
0.00820288
0.00811245
0.0110225
0.00604084
0.0082258
0.00779613
0.00958281
0.00829269
0.00799384
-0.000370426
0.00959952
0.0126391
0.00906246
0.00989177
0.00854115
0.00426928
0.00775036
0.00828385
0.000408582
0.00613255
-0.00624404
0.00781623
0.00746889
0.00912961
0.00744695
0.00755168
0.00769657
-0.00318182
0.00648382
0.00495576
0.00712716
0.00734131
0.00650866
0.00382538
0.00743444
0.00561365
0.00763307
0.00783753
0.00743765
0.00565345
0.00703699
0.00487134
0.00547766
0.0050931
0.00185106
0.00317218
0.0107943
0.00892435
0.0070407
0.00681235
0.0083251
0.00146871
0.00661199
0.00662944
0.00675687
0.00072202
0.00777128
0.00778192
0.00781377
0.00354155
0.0103657
0.00926564
-0.00071951
0.00514739
0.00310432
0.00605498
0.00437249
0.00199833
0.00737875
0.00619404
0.00991326
0.0108157
0.00739744
0.0151176
0.00979046
0.00521723
0.0102146
0.00901981
0.0155204
0.00888964
0.0106522
0.00967696
0.00681948
0.00619765
0.00674737
0.00998853
0.00594368
0.00782822
0.00801812
0.00418881
0.00877283
0.00818975
0.00766523
0.0076164
0.0108668
0.00908699
0.0046819
0.00572166
0.00979879
0.00744136
0.00578581
0.00369541
0.0070843
0.00340651
0.00500901
0.00708571
0.00652288
0.00356106
0.00311863
0.00498771
0.00897876
0.0121451
0.00977901
0.0176192
0.00780326
0.00131009
0.00282813
0.00644664
0.0055794
0.00698439
0.00815622
0.0142051
0.00791448
0.00728352
0.0164776
0.00495834
-0.00110447
0.00499187
0.0129632
-0.0018925
0.00650226
0.0273601
0.00432889
0.00909169
0.0125289
0.0006592
0.00391755
0.00010882
-0.00144821
0.0230267
0.00308766
0.0188524
0.00994709
0.00922991
-0.00257739
0.00579139
0.00882417
0.0067576
-0.00136635
0.00549215
0.00689802
0.00816006
0.00830056
0.00808093
0.00738997
0.00482423
0.00747978
0.00691455
0.00694617
0.00442258
0.00564793
0.00323234
0.0080266
0.00826119
0.00825737
0.00487485
0.00774256
0.0044234
0.00681575
0.00894784
0.00737254
0.0070553
0.00819651
0.00687601
0.00761543
0.0023869
0.00774479
0.00382334
0.00373813
0.00868383
0.00794837
0.00781238
-0.00281684
0.0016166
0.0110896
0.0114575
0.00466911
0.0144337
0.00636688
0.00371082
0.00629903
0.00687227
0.00568122
0.00758384
0.00151105
0.00674825
0.00636118
0.00562722
0.00215667
-0.00149086
0.000920956
0.00423761
-0.00447954
0.00709628
0.00427478
0.00449184
0.00209463
0.00574785
0.0052899
0.00757262
0.00892155
-0.00866906
0.0114899
0.0130063
0.00724824
0.0067715
0.0110404
0.00327986
0.0083476
0.00117922
0.00916161
0.0094422
0.00889925
0.00842809
0.00635957
0.00860242
0.00863111
0.0024189
0.00621004
0.00833178
0.00693023
0.0106141
0.0084989
0.00965573
0.000220821
0.00686431
0.00317845
0.00834604
0.00682724
0.0074544
0.00564536
0.00807979
0.00650789
0.00896632
0.00887022
0.00951846
0.00660827
0.00352236
0.0052735
0.00614173
0.00653562
0.00604109
0.00430782
0.00816591
0.00683027
0.00981128
0.00757397
0.00730933
0.00765268
0.00591666
0.0117161
0.00548815
0.0104574
0.00299077
0.00305634
0.00693495
0.010374
0.00596932
0.01032
0.00556932
0.00834069
0.00596223
0.00484219
0.00216453
0.00324364
0.0140962
0.00785142
0.00829121
0.0116961
0.0129466
0.00705044
0.00568087
0.00553106
0.00693309
0.00771919
0.00810601
0.00693798
0.00469906
0.0110214
0.0131124
0.0107652
0.01191
0.00986434
0.00882776
0.00930392
0.00966474
0.00567766
0.0106568
0.00839512
0.00801476
0.00793203
0.00785176
0.00239458
0.00763778
0.0103936
0.00546145
0.00453942
-0.000365519
-0.00343353
0.0120663
-0.00199154
0.00668873
0.0108935
0.00895164
0.00989168
0.00649014
0.00700908
0.00223403
0.00223181
-0.00217489
0.00138271
0.00590934
0.00678568
0.00665304
0.0107143
0.0150707
0.0160591
-0.00227632
0.0103147
0.00962405
0.0067942
0.00865719
0.00929309
0.010369
0.00921595
0.00961646
0.00986028
0.00942986
0.00987553
0.00923746
0.0107354
0.00600124
0.00508532
-0.00252998
0.00535605
0.00659302
0.00743846
0.00867941
0.00875559
0.00778705
0.00876841
0.00246827
0.00745948
0.0074204
0.00933512
0.00860478
0.00847712
0.00908769
0.0123468
0.00928971
0.010325
0.000879457
0.00645191
-0.00716216
0.0104408
0.00755788
0.00802059
0.00876115
0.00815502
0.0073204
0.00703412
0.00655304
0.00122225
0.0046643
0.00651357
0.00597308
-0.00743914
0.00871896
0.0072029
0.0101121
0.00840735
0.0023559
0.012224
0.0115084
-0.00895651
0.010303
-0.00208097
0.00435884
0.000885448
0.00292841
0.00243563
0.0114049
0.00379075
0.0100242
0.00184615
0.00105528
0.0016794
2.37849e-05
0.0130249
0.0156277
0.00182203
0.00153224
-0.00203016
0.00286703
0.00275316
0.00729539
0.0136013
0.00668081
0.00716486
0.00633245
0.00662917
0.0039078
0.00619888
0.00846548
0.00719301
0.00713676
0.0074218
0.00737757
0.00662379
0.0087762
0.0051982
0.010459
0.00747388
0.00793393
0.00940091
0.00951128
0.00971225
0.00998897
0.00902174
0.00864064
0.00850757
0.0125661
0.00854062
0.00567984
0.0061867
0.00878788
0.00994463
0.012032
0.00895509
0.00856911
0.00687416
0.00888262
-0.00613579
0.00947378
0.00712073
0.00930777
0.0091139
0.00848939
0.00786656
-0.00697157
0.0075594
0.00359738
0.00838426
0.0078206
0.00795927
0.00682922
0.00922006
0.0083757
0.00813545
0.0104101
0.00850023
0.00679341
0.00663189
0.00780543
0.00649022
0.00817794
0.00609371
0.00880274
0.00752911
0.00834649
0.0115164
0.00890747
0.00758181
0.00903628
0.00829778
0.00602339
0.0011935
0.00221446
-0.00244424
0.00685569
0.00939779
0.013111
0.000619097
-0.00789638
0.00969516
0.00736893
0.0117453
0.0111786
0.0138435
0.0128366
0.0126788
0.00484365
SCALARS CoVolArea double 1
LOOKUP_TABLE default
1509.74
1561.43
1796.75
1862.98
2183.44
1291.37
3094.82
2081.65
1124.36
1446.09
1229.05
1337
1720.06
1735.97
3570.87
3018.56
2092.04
2355.92
2344.65
2241.31
1786.79
2420.84
1798.82
2796.28
2354.83
1768.96
1615.29
1930.08
2168.19
2597.06
1733.82
2370.36
2019.68
2516.14
2591.67
2438.3
3444.9
1890.26
1957.28
2734.55
1750.89
2596.68
1402.28
3116.31
1481.88
1584.17
1865.69
1993.31
1401.16
1657.83
1692.35
1871.05
1671.05
1475.27
2984.87
1609.63
1979.12
1550.25
2040.96
2035.71
1881.93
2143.48
2334.48
2803.41
2411.66
2428.43
1645.53
2371.04
2732.2
1730.43
2254.48
2023.72
1384.67
3617.11
833.87
3057.78
2173.93
3559.53
1231.26
1731.29
1609.56
1607.93
1726.3
1735.68
2131.39
1837.58
2038.9
2254.01
2878.69
2701.31
2256.86
2904.2
1819.82
2495.89
1782.11
2742.15
2131.33
1674.33
1895.62
1728.82
2335.8
2196.26
2172.07
1991.49
1900.71
2734.55
2434.55
1863.73
2467.24
1977.63
2411.62
1935.35
2824.02
2290.9
2392.64
2212.47
2114.99
1783.84
2564.73
2618.62
2378.17
2736.71
2546.22
2535.21
3075.76
2435.35
2650.25
2349.15
2355.38
1937.23
1848.98
2243.88
2086.4
2503.94
1950.63
2010.04
1742.92
2194.25
2329.74
2857.12
2442.98
1842.36
2385.95
2959.75
1753.81
3159.3
1867.69
2641.52
2318.17
2138.59
2128.51
2511.46
1883.71
2335.57
1942.8
2337.01
1994.39
2085.65
2232.88
3130.16
1616.04
1311.32
1533.54
1321.62
1626.9
2242.39
1733.91
1502.93
2700.93
2261.28
4025.42
1600.44
1487.43
1315.84
1693.89
1519.94
1558.45
2292.46
1889.39
2227.41
1476.49
1573.75
1606.61
2706.86
1437.64
2080.75
1627.98
1540.24
1694.85
2576.78
1994.72
2974.86
1716.17
1899.48
2651.54
1647.61
1629.85
1558.47
1994.02
1526.42
1407.83
2898.64
2015.69
1970.14
2000.74
2990.65
1751.34
1578.11
1629.81
2081.57
1542.22
1728
2541.13
1622.01
2570.11
2888.59
2997.77
2446.64
1864.54
1940.27
2021.93
1616.32
2107.59
1783.85
2211.24
1887.42
1736.11
2317.9
1804.91
2059.09
1688.49
2074.58
2343.26
2483.82
2378.35
2486.11
2468.31
2218.25
2278.9
2530.14
2575.36
2589.03
2909.68
2851.6
1953.32
1672.72
2587.33
2239.41
1751.47
1996.92
2237.53
2479.61
2383.26
2667.29
2420.7
2179.83
2375.28
2623.62
1882.75
2131.67
1752.6
1943.18
1713.52
1264.7
2034.12
2252.14
2586.15
2897.19
2910.48
2572.97
1569.95
1512.68
1583.14
1512.68
1342.61
2401.82
2236.37
1801.78
1799.67
2698.9
1202.81
1110.08
2028.55
1516.26
1783.89
2788.88
2550.97
3494.74
3576.49
1085.55
1899.67
1356.81
1348.04
1610.93
3618.97
2410.19
1712.35
2012.11
3053.96
1669.05
1635.51
1688.34
1551.94
1653.56
1467.92
2406.62
1465.38
1615.72
1725.2
2532.77
1644.81
2433.09
1673.54
1572.2
1690.97
2926.4
1876.32
2920.59
1809.72
1671.32
1977.3
1838.28
1811.94
1908.05
2024.14
1943.94
1911.05
2501.4
2127.23
2098.52
1807.55
1930.06
3040.89
2803.11
2402.74
2122.42
2545.39
1898.03
2224.49
2629.22
2695.61
2451.58
2816.24
2562.62
2075.88
1769.81
2266.98
2318.97
1671.24
2470.85
2999.65
2038.65
3530.06
1520.97
2340.68
1748.82
3147.07
2313.98
2550.53
2128.86
1823.42
2941.67
2225.16
2060.73
1606.59
1670.4
1560.98
2421.42
1899.89
3168.75
1643.75
1484.12
1997.58
1736.91
2082.69
1620.03
1792.46
2593.76
2466.28
2217.87
2161.37
1978.56
2164
2138.82
2894.65
2136.46
2773.03
1859.49
1858.67
2141.11
2049.62
1900.05
2220.93
2318.42
2392.67
2189.31
2447.96
2516.87
2597.17
2412.13
2269.96
2448.18
2692.1
1865.97
2023.19
2122.87
2062.28
1763.05
2158.89
2547.14
1617.84
2185.02
1584.45
2665.03
2382.28
2123.01
1607.17
2143.48
2002.68
2967.62
2641.33
2966.38
2707.87
2688.63
2701.09
1835.53
2083.62
2185.07
2108.58
1991.74
2568.98
2056.17
2011.19
1873.01
2290.07
1981.07
2169.11
1631.94
1640.44
1724.06
2476.07
2253.58
2500.77
2714.19
2422.48
2454.84
2399.52
2246.45
2448.99
2604.58
2793.78
3001.46
2991.39
2357.66
2359.28
2485.78
2862.9
3154.2
3954.46
2476.37
2846.24
2730
2761.44
2403.02
2783.42
2795.72
2339.8
2919.03
2613.34
3856.54
2960.3
2703.34
2050.77
2383.22
2248.19
2841.29
2802.99
3357.12
1955.62
1917.06
2594.67
2015.21
1877.65
1927.61
2151.46
1807.92
1892.76
2054.74
1855.4
1808.66
1921.86
2524.51
2822.92
2394.94
2756.48
2235.04
2197.15
1798.2
1727.05
2131.28
2129.9
2906.38
2745.58
2824.45
1933.26
1963.73
2055.49
1930.89
1601.09
1809.86
1817.07
2884.97
2171.7
3523.8
2241.78
2226.99
1857.56
1929.84
1980.95
2161.89
1579.15
1943.11
2388.4
2147.17
2199.25
2431.01
3641.45
2170.51
3022.69
2083.56
2178.26
1760.67
1682.32
2328.2
3190.05
1834.16
3140.49
2235.51
2930.42
3129.11
2464.72
1693.84
2015.51
1517.22
3101.65
2444.02
2234.55
2503.05
2266.45
2101.42
2458.84
3477.16
3074.73
2927.53
2821.76
2568.62
1992.99
2036.37
2060.21
1935.78
2196.78
2656.44
1848.95
1985.45
1904.32
1865.71
2049.48
2862.7
2479.99
2463.89
2566.22
2370.26
2017.29
2083.79
1747.03
2277.47
2298.87
2223.79
2412.24
2570.56
1877.36
1523.42
1566.57
1925.26
2198.59
2697.3
2515.38
2243.18
2106.05
1897.9
1833.32
2240.56
3400.55
1788.97
1834.97
1725.49
1808.83
1964.95
1859.83
3488.83
2245.6
1962.11
1810.72
2144.81
2096.09
2990.54
1697.65
1901.72
1714.58
1803.8
2130.28
2154.21
2205.65
1945.2
1932.41
1963.66
2484.78
2289.76
2240.39
2117.66
2133.44
2324.6
2445.25
2440.4
1554.48
2936.68
2539.65
2640.67
3288.48
1827.99
1431.19
1507.24
2385.44
2983.08
1604.38
1989.74
1221.42
1542.66
1597.26
2200.62
1384.94
2163.95
SCALARS SignedDistance double 1
LOOKUP_TABLE default
138.552
137.001
116.204
107.95
101.014
141.436
155.203
104.53
146.372
140.711
157.39
152.019
192.442
139.402
171.98
171.136
138.147
93.3047
100.315
113.432
135.783
167.393
133.784
170.013
112.989
108.896
143.82
149.603
111.92
140.425
133.888
107.076
138.318
107.29
87.4806
92.9372
117.255
115.523
114.021
136.711
134.533
154.45
158.097
182.219
161.952
143.896
160.82
166.02
154.966
156.205
138.955
157.372
140.013
152.464
173.299
136.498
155.481
160.064
111.503
117.595
114.223
110.75
98.7721
98.8049
96.9711
107.355
129.075
104.399
108.729
153.146
133.456
132.542
159.274
173.602
169.46
183.229
160.754
167.576
154.934
135.886
151.079
154.745
153.037
137.055
122.196
123.971
135.458
124.96
103.685
110.165
100.717
150.818
151.137
161.158
155.162
148.595
146.13
127.054
122.605
146.885
102.116
105.084
154.259
123.063
129.537
103.163
102.117
125.253
102.916
119.94
124.469
150.376
141.589
113.333
120.064
123.406
120.351
140.65
78.8306
87.4815
99.4329
117.139
106.137
79.2664
96.4151
106.838
117.165
124.038
106.409
100.816
107.137
106.187
136.257
127.71
136.19
117.346
117.761
152.87
134.264
149.681
144.56
138.426
137.171
163.113
153.184
145.405
151.585
105.031
119.737
118.83
121.416
94.7505
133.427
135.879
124.68
152.422
116.301
120.849
103.125
164.537
160.619
154.811
147.593
158.751
151.419
190.068
167.941
171.045
169.426
167.031
172.911
147.901
154.77
158.861
149.286
151.522
140.92
178.227
163.978
177.826
148.315
147.887
139.932
161.799
155.706
160.789
138.831
147.853
147.899
174.56
158.479
167.245
154.095
141.287
165.612
161.729
137.003
150.546
147.073
147.465
153.939
173.067
159.171
157.83
159.36
172.836
139.092
151.004
150.201
147.245
148.495
136.515
165.437
158.254
163.646
164.145
162.727
152.143
128.881
126.125
123.995
124.692
105.031
114.96
97.6414
124.801
123.833
92.0361
109.232
97.1991
121.903
127.99
100.419
96.7957
99.6027
93.7334
96.9682
99.8303
95.8898
97.8637
93.6094
116.765
100.18
94.7629
119.083
131.935
104.528
108.279
127.505
113.669
115.667
104.229
102.437
113.37
107.189
107.379
103.256
105.221
157.86
150.206
144.627
134.101
145.369
149.393
121.901
138.06
126.668
106.101
116.67
114.192
142.384
147.727
140.993
156.206
174.437
162.936
165.062
181.443
175.713
172.433
160.601
161.282
164.044
158.693
190.393
172.371
162.741
164.538
177.324
168.105
172.743
174.874
155.861
145.596
167.773
165.027
162.508
161.847
169.899
138.795
145.135
143.071
143.756
134.15
151.698
156.651
147.442
146.67
138.958
161.199
153.73
162.471
134.813
145.402
143.701
158.319
152.09
160.298
131.478
132.64
130.289
129.966
116.054
122.747
115.215
140.341
137.802
122.573
128.248
125.703
134.198
131.868
107.464
108.042
101.716
108.166
106.145
100.545
105.75
106.086
112.657
122.642
116.427
115.525
156.635
151.902
158.683
157.924
148.587
153.503
151.049
164.646
163.974
149.383
154.365
149.385
161.471
160.07
128.742
131.177
120.346
149.503
143.449
152.09
133.411
135.357
143.508
154.565
151.68
149.936
138.793
152.24
116.361
125.594
141.532
133.639
131.165
104.236
102.538
109.228
103.545
105.163
101.999
105.687
157.703
136.895
139.73
131.608
134.121
146.11
119.136
125.182
115.179
110.643
111.288
120.725
100.298
103.518
100.961
99.2388
103.09
102.159
107.477
129.121
116.516
114.632
112.737
124.795
107.249
100.081
134.151
134.696
146.601
117.629
125.431
112.544
139.625
136.322
125.711
101.645
109.119
112.07
119.582
134.238
126.85
130.482
128.887
141.518
103.855
116.258
94.5397
130.956
133.049
140.434
110.331
121.823
117.473
138.966
134.616
133.256
93.0165
88.1882
101.636
82.051
79.4078
78.4709
101.174
92.7904
98.263
113.384
99.8658
94.2927
124.064
104.818
102.855
114.348
110.172
126.33
133.942
88.8432
88.3408
86.9812
84.7154
81.0431
89.2228
86.5266
109.741
126.369
132.779
129.112
125.79
109.482
105.394
115.941
103.483
112.048
108.032
121.52
100.894
101.739
113.222
108.121
105.226
101.903
109.144
109.64
104.721
108.088
103.625
109.677
107.067
109.452
155.905
146.083
152.485
119.726
134.104
125.759
124.384
129.813
119.193
114.337
112.995
119.02
105.666
109.938
112.397
107.129
128.128
115.207
127.203
156.438
157.697
152.066
158.925
143.847
135.206
123.346
156.673
157.573
141.02
137.783
147.76
141.74
135.524
157.711
151.384
124.956
139.066
132.761
121.335
131.65
131.449
133.294
139.482
156.133
158.666
152.249
149.883
155.32
146.782
145.565
146.345
147.812
140.266
143.629
152.466
149.438
150.652
147.516
150.544
145.638
104.896
106.699
104.966
101.64
105.267
129.846
125.323
127.068
120.839
112.659
130.624
113.187
121.726
126.611
125.115
111.369
117.672
110.941
140.249
106.562
119.363
135.889
138.465
88.4891
107.515
95.261
84.2731
88.3136
144.015
144.758
145.463
131.572
120.831
105.181
113.917
128.064
156.855
125.579
135.011
158.546
156.455
115.262
132.722
124.601
115
117.881
168.432
158.607
167.125
158.674
146.304
128.935
136.331
142.253
129.065
125.942
126.13
117.475
108.092
136.323
114.484
124.3
132.144
128.63
102.146
101.708
100.656
100.394
107.696
116.708
109.724
106.729
153.958
157.657
154.441
159.056
167.409
158.596
147.715
156.204
165.333
170.403
141.025
162.673
153.546
140.398
144.268
173.222
158.221
164.677
