# vtk DataFile Version 4.2
vtk output
ASCII
DATASET POLYDATA
POINTS 642 double
-191.501 346.699 37.9136
191.327 352.626 36.3372
-195.306 -297.776 49.824
202.274 -304.179 50.3587
0.972931 -195.638 401.956
1.06976 201.201 362.099
1.42143 -149.103 -236.654
0.850656 241.793 -280.07
298.642 39.9977 -146.252
293.409 21.5997 249.6
-286.703 39.4571 -142.892
-282.051 22.6154 244.928
-266.164 203.639 135.103
-170.235 128.327 347.822
-91.6237 281.222 202.197
94.9286 284.826 205.929
1.08092 410.451 32.9953
122.414 362.199 -148.136
-117.424 358.035 -145.717
-185.335 149.302 -261.061
-297.974 221.171 -64.2941
-311.197 31.2853 49.2712
175.314 130.715 352.459
254.896 198.06 136.576
-187.757 -104.128 369.225
1.96397 22.4363 450.379
-278.47 -159.559 -54.1435
-279.709 -165.594 188.697
1.5397 39.2828 -334.752
-171.695 -63.8222 -245.919
301.035 226.271 -68.6889
189.722 151.29 -264.216
292.393 -170.425 190.666
194.7 -105.521 373.597
128.489 -310.311 269.766
-126.023 -307.953 267.996
0.472652 -350.55 49.9672
-116.546 -281.943 -129.392
121.027 -284.686 -131.376
176.516 -65.7999 -248.77
287.416 -167.412 -56.6411
322.428 22.9386 54.5877
-241.913 282.269 89.1442
-193.748 248.376 168.736
-150.372 333.515 115.661
-237.08 77.3249 305.686
-222.907 159.351 260.654
-274 105.778 209.65
-49.9389 246.534 299.791
-136.499 212.562 296.498
-87.5585 171.066 367.268
-57.5809 367.913 114.252
-97.4585 397.424 34.1833
53.1968 247.595 300.367
1.66488 294.19 216.091
102.865 401.019 34.4163
61.4778 369.093 113.714
150.509 337.758 114.339
-65.0799 416.163 -56.6139
-161.019 370.987 -53.668
167.281 379.637 -55.7506
67.9301 418.194 -57.0912
-61.7891 310.63 -224.328
0.997144 375.12 -157.238
64.3531 311.92 -225.475
-222.329 299.593 -111.254
-257.764 298.454 -14.2647
-99.1759 200.893 -284.106
-158.72 262.659 -213.273
-303.317 143.988 -104.233
-256.415 197.341 -167.031
-249.273 93.244 -209.834
-300.178 224.783 37.6093
-300.164 51.8951 -47.46
-327.649 145.429 -14.664
-294.112 144.881 86.5471
-299.675 21.5204 157.669
186.502 248.391 171.759
243.424 285.068 88.0366
91.521 172.26 369.965
140.874 215.026 299.864
283.857 105.746 212.491
228.709 160.991 266.036
244.67 78.3462 310.317
-90.9995 81.1417 413.961
1.62694 119.237 417.924
-246.972 -43.2794 314.318
-186.559 22.3684 372.728
0.495969 -80.2335 437.041
-95.2154 -38.5628 424.423
-103.994 -158.196 404.671
-301.789 -69.56 114.772
-287.941 -80.3234 224.003
-277.301 -67.2741 -99.2917
-306.041 -75.5264 -3.0429
-242.919 -230.791 124.324
-289.109 -169.247 47.2556
-249.789 -238.833 -6.5943
-192.518 37.7043 -271.721
-241.907 -14.304 -202.702
1.22885 137.238 -325.809
-100.078 97.4349 -319.297
-93.0879 -113.904 -256.055
-97.3228 -20.5551 -307.783
0.848517 -57.5027 -306.161
162.791 266.228 -216.739
101.584 202.377 -286.051
258.902 301.088 -16.8184
225.947 305.135 -113.764
258.287 92.9225 -214.169
258.907 199.89 -171.064
306.796 137.331 -108.348
253.754 -237.274 125.662
233.163 -253.885 231.987
172.017 -315.775 174.171
254.856 -44.1972 318.785
265.987 -147.487 291.027
302.049 -82.9033 226.821
70.3945 -267.434 354.465
173.361 -220.82 344.582
106.876 -160.887 406.198
68.0671 -352.24 178.521
110.376 -344.969 49.0563
-68.1672 -265.925 352.759
0.798158 -321.867 277.981
-106.092 -342.372 49.3862
-66.1746 -350.728 178.336
-166.235 -311.309 173.077
69.4724 -339.998 -46.1315
169.808 -311.144 -46.2807
-164.123 -306.068 -44.6084
-66.8686 -339.728 -46.0192
65.2212 -231.318 -193.078
0.643091 -291.619 -136.655
-62.2185 -230.908 -193.098
220.999 -239.485 -102.244
260.776 -245.087 -8.24953
95.7788 -116.012 -257.513
154.596 -196.833 -188.429
286.168 -65.3292 -99.9159
242.333 -133.234 -148.795
250.108 -15.3351 -206.859
299.074 -176.091 47.4155
311.021 45.1499 -55.0045
319.755 -78.3247 -3.58302
312.698 -71.6191 116.846
314.825 22.5854 162.373
97.9669 -37.033 429.587
192.354 22.929 378.528
94.6177 81.4786 418.258
-224.908 -247.778 232.287
-169.427 -217.371 340.54
-256.19 -146.635 286.083
-149.307 -193.506 -185.164
-212.604 -234.399 -98.4278
-236.653 -128.149 -145.625
198.08 37.6245 -275.456
99.2556 -20.7834 -309.589
101.568 97.5658 -321.91
301.17 121.191 93.0004
325.355 145.586 -18.4656
300.448 229.159 36.5758
-220.36 316.325 64.7887
-199.237 311.472 104.143
-171.793 343.3 79.8205
-233.019 229.313 154.382
-220.728 275.081 125.4
-257.439 244.838 110.826
-124.453 319.003 144.834
-176.558 301.416 135.436
-143.867 264.304 183.292
-262.433 50.5725 277.362
-259.92 92.1437 258.884
-280.744 65.1986 229.123
-200.165 145.155 306.565
-231.861 120.387 285.702
-206.13 103.463 329.359
-262.934 157.317 168.984
-251.174 134.513 236.396
-240.127 178.186 202.234
-25.0314 226.611 332.483
-69.2369 212.568 336.261
-42.6048 187.756 367.613
-115.411 243.53 264.667
-94.5923 231.794 300.422
-72.2861 260.234 265.705
-130.325 151.147 360.587
-114.596 194.442 333.492
-154.661 173.843 325.091
-206.872 203.948 224.261
-182.779 188.416 281.248
-164.282 225.028 247.454
-124.596 367.556 77.5043
-143.504 374.474 35.5244
-77.5481 334.41 148.737
-102.139 353.622 114.841
-52.4388 409.223 33.8196
-77.1818 386.738 76.5307
-31.8143 394.118 75.5423
27.4905 226.968 332.973
1.1131 250.704 303.897
50.074 292.504 214.481
26.9897 269.468 270.27
76.3255 262.945 265.859
-23.8573 268.531 270.363
-45.1107 290.972 212.594
147.244 381.46 34.8845
128.017 373.259 77.2073
171.897 348.545 78.7195
34.4154 394.098 75.232
81.9319 389.209 76.7939
55.6293 410.489 33.7141
124.352 320.341 146.896
105.333 357.816 114.472
80.9838 335.549 150.288
-27.2171 340.236 157.698
29.2834 339.655 157.969
0.655473 369.903 115.186
-130.342 391.47 -10.3832
-178.187 361.93 -7.95936
-33.0555 420.47 -11.0159
-82.4996 412.088 -11.2697
-140.976 369.151 -99.8585
-113.955 399.748 -57.1705
-93.0485 392.535 -102.158
180.341 369.624 -10.4118
136.509 397.508 -10.9424
96.9593 395.67 -103.525
119.661 404.185 -57.9636
147.024 375.005 -101.9
86.7695 415.096 -11.3959
35.568 421.687 -11.1946
-30.7774 278.653 -255.879
0.824215 314.48 -229.263
32.6412 279.184 -256.505
-62.1603 372.708 -155.759
-32.2878 346.939 -193.653
-90.8563 338.102 -187.101
94.7593 340.771 -188.777
34.3071 347.255 -193.764
65.0051 374.404 -156.498
1.15152 419.374 -57.5783
35.6443 403.313 -109.005
-33.2737 402.021 -108.465
-214.149 336.165 -33.6364
-227.56 325.602 11.3248
-170.942 331.381 -129.34
-193.755 337.647 -83.2545
-280.803 263.334 -39.436
-243.201 301.53 -62.3942
-263.816 263.693 -89.1964
-50.3073 223.199 -284.747
-80.6653 259.323 -257.654
-172.945 206.899 -239.52
-129.647 234.005 -251.839
-144.505 175.988 -276.492
-111.448 290.026 -222.002
-138.964 312.955 -182.12
-293.525 89.9182 -124.211
-277.889 118.265 -155.57
-271.677 65.3147 -176.992
-281.877 210.735 -118.86
-286.335 170.523 -137.044
-308.907 181.2 -87.5325
-220.337 121.647 -238.539
-251.626 146.995 -187.709
-219.92 173.51 -215.036
-194.093 285.12 -164.381
-211.207 231.499 -192.938
-243.069 250.613 -142.55
-253.433 294.118 38.2127
-305.793 227.122 -11.7997
-282.85 263.437 11.8173
-273.685 256.648 64.3691
-286.958 217.475 86.8507
-296.23 46.952 -102.795
-306.293 101.56 -76.2893
-319.616 107.872 6.01411
-321.158 110.667 -27.7599
-307.659 47.3916 5.52408
-320.52 147.08 -55.1805
-324.348 180.76 -39.1203
-290.782 64.9867 188.602
-294.649 22.6968 205.049
-289.497 175.184 111.466
-281.89 120.805 147.962
-308.458 21.0229 100.61
-295.348 72.6365 130.145
-304.534 89.2032 62.7487
-324.179 183.881 10.2495
-320.46 149.461 28.4287
-311.166 184.035 61.1821
199.97 314.898 103.131
221.525 319.713 64.6037
141.149 269.132 190.182
174.938 305.015 135.338
257.213 250.94 104.276
220.733 280.171 120.833
225.997 225.343 153.71
45.6443 188.049 368.634
72.9861 213.603 337.865
159.626 176.502 329.118
119.016 196.46 336.541
134.727 153.129 364.517
98.7343 233.744 302.284
118.64 246.762 266.68
291.584 64.8825 232.16
268.576 93.2791 262.944
271.903 49.777 281.787
244.82 172.23 213.203
258.514 134.974 240.786
270.474 146.822 186.788
212.277 105.685 334.167
238.933 122.714 290.3
206.106 147.956 311.153
165.863 226.997 253.882
187.679 190.801 285.983
209.326 201.65 234.618
-43.5755 147.859 396.438
1.27173 163.098 392.396
-133.567 107.261 383.854
-90.8835 128.177 393.551
1.89787 71.1318 437.787
-44.6548 100.398 420.655
-44.6286 52.1583 437.108
-264.729 -11.1223 281.146
-244.319 21.5189 312.395
-188.849 -40.3941 373.23
-218.391 -10.9051 344.748
-221.629 -74.16 344.631
-214.654 51.8787 341.679
-181.388 77.7217 363.865
-0.517239 -141.368 416.164
-52.8284 -123.709 420.102
-56.0568 -179.827 410.018
-45.3384 -5.98164 445.644
-47.9297 -59.1704 435.893
1.88841 -24.7835 451.289
-148.617 -132.929 390.64
-101.873 -100.367 413.761
-144.95 -74.6955 400.24
-141.201 52.7754 398.197
-144.85 -8.55033 402.937
-93.5711 23.5306 426.897
-295.819 -24.2298 192.256
-286.735 -29.5376 234.065
-311.75 -20.3961 81.9063
-305.294 -21.1331 135.773
-285.227 -126.651 208.223
-292.332 -76.1649 176.522
-288.544 -118.922 156.505
-281.327 -4.82538 -129.89
-287.108 -10.5451 -75.9009
-296.567 -119.282 -28.2924
-295.982 -78.0454 -45.3434
-281.421 -118.695 -73.2122
-304.708 -23.0729 -17.7804
-311.103 -23.778 25.28
-221.594 -269.48 84.6497
-251.143 -240.589 49.009
-225.709 -271.318 20.6278
-274.455 -167.566 118.839
-269.845 -203.673 82.1711
-266.915 -202.352 161.195
-266.704 -201.1 -31.4692
-273.074 -205.118 21.502
-288.447 -166.732 -2.92567
-307.594 -72.7677 48.9884
-302.932 -124.117 20.0913
-296.336 -120.337 79.0456
-249.933 38.0305 -210.546
-267.259 11.7239 -174.416
-192.415 93.4862 -271.215
-223.306 66.171 -244.406
-210.127 -37.7535 -227.238
-219.779 10.4989 -240.224
-185.952 -15.1399 -262.172
0.937036 188.9 -305.003
-51.1168 170.864 -309.775
-50.1861 68.4117 -332.976
-51.0039 117.378 -326.616
1.63041 87.4528 -336.883
-101.818 148.526 -306.748
-145.731 125.337 -295.389
-51.1934 -131.937 -250.965
-47.8028 -84.0084 -288.09
1.15617 -96.7019 -282.237
-137.984 -44.8609 -280.334
-95.4815 -65.5742 -287.426
-132.295 -90.4254 -255.092
1.0563 -10.8994 -323.909
-49.6046 -39.809 -310.87
-49.9872 7.96414 -325.288
-150.091 67.3475 -300.629
-100.492 37.5898 -319.781
-147.48 8.18837 -295.526
[...]
POINT_DATA 642
SCALARS Mean_Curvature double 1
LOOKUP_TABLE default
0.00711424
0.00591386
0.00708188
0.00729524
0.00224568
0.00854455
-0.00758774
0.00545961
0.00821937
0.00754791
0.0106382
0.00762943
0.00625261
0.00621221
-0.00177337
0.000307454
0.00292835
0.00739593
0.00694823
0.00637681
0.00408576
0.00509786
0.00636338
-0.0014167
0.00404372
0.00910851
0.00723395
0.00742854
0.00545382
0.0056548
0.00879322
0.00600893
0.00795487
0.0054156
0.00635412
0.00730285
0.0012431
0.00698313
0.00706981
0.00568009
0.00689588
0.00362764
0.00715723
-0.00133079
0.00732268
0.00640424
0.00533228
0.00551146
0.00598445
0.00603491
0.00611871
0.006277
0.00750727
0.00541507
-0.000717183
0.00780672
0.00538493
0.00624919
0.0105572
0.00627812
0.0100369
0.00985662
0.00569371
0.00327185
0.00554837
0.00618394
0.00917964
0.00478371
0.00420613
0.00551015
0.00737481
0.00599189
0.00558634
-0.00342131
0.0131387
-0.00596431
0.0013431
-0.00386317
0.00829883
0.00627554
0.00637769
0.00588786
0.0062001
0.00603673
0.00562867
0.00650363
0.00581343
0.00583332
0.00477412
0.00351851
0.00785262
0.00143393
0.0061827
0.00167904
0.00556342
-0.00480069
0.00691822
0.00751311
0.00763197
0.00607351
0.00524977
0.00687548
0.00354944
0.00719774
0.00560538
0.00446682
0.00462344
0.00697742
0.00553139
0.00592987
0.00601669
0.00264369
-0.00341332
0.00649011
0.00626913
0.00271783
0.00800695
0.00636822
0.00734221
0.00695661
0.00798781
0.00948944
0.00607827
0.00717255
-0.000470801
0.00600264
0.00946401
0.00722013
0.00566934
0.00723308
0.00716852
0.00735549
0.00466964
0.00156573
0.00645654
0.00669901
0.00741934
0.00335664
0.00618481
-0.000572258
0.00549479
0.00629866
0.00549272
-0.00235895
0.00899168
-0.000442135
0.0057649
0.00465076
0.00601515
0.00591898
0.00756498
0.00652141
0.00861105
0.00574866
0.00668701
0.00618025
0.00745077
0.00671768
0.00652089
-0.00143447
0.00895672
0.00906009
0.00697604
0.00757589
0.00631057
0.0028621
0.00691423
0.00626334
0.00288354
0.00654148
-0.00610163
0.00650529
0.00611199
0.00675625
0.0061525
0.00621131
0.00629352
-0.00176521
0.00519243
0.00389962
0.00605324
0.00608145
0.00567118
0.0043094
0.00643571
0.0052078
0.00621449
0.00638041
0.00613809
0.00399119
0.00587003
0.00474245
0.0052511
0.00445674
0.00254967
0.00486113
0.00816238
0.00776296
0.00638001
0.00582958
0.00700099
0.000570385
0.0056435
0.00541529
0.00579172
-7.44296e-05
0.00651063
0.00702376
0.00596581
0.00511976
0.00826586
0.00734268
0.00139879
0.00616073
0.00310256
0.00497928
0.00347643
0.00203241
0.00695908
0.00500717
0.0079472
0.0088187
0.00593189
0.0103689
0.00701035
0.00551603
0.00853708
0.00652296
0.0100477
0.00652541
0.00847494
0.00804139
0.00583448
0.00517048
0.00574688
0.00762765
0.00536576
0.00654951
0.00654648
0.00448475
0.00711738
0.00585186
0.00607206
0.00586166
0.0070965
0.00733531
0.00440869
0.00463502
0.00718173
0.00566955
0.00571787
0.00387283
0.00583067
0.00359576
0.00471865
0.00588387
0.00559459
0.00413821
0.00447318
0.00244976
0.00600224
0.00631045
0.00954463
0.0120091
0.00643566
0.00185603
0.00306526
0.00530648
0.00488734
0.00593714
0.00677799
0.00788582
0.00742183
0.00676065
0.0066683
0.00556422
0.000506543
0.0062283
0.00842061
-0.00290458
0.00761203
0.0146202
0.00554051
0.00812451
0.0105562
-0.000211969
0.00370421
-0.000124331
-0.00269305
0.0139422
0.00681158
0.014529
0.00766566
0.00683775
-0.00268276
0.00599104
0.00839113
0.00714844
-0.00130326
0.00511712
0.00593138
0.00651595
0.00663226
0.00640481
0.0063998
0.00471978
0.00593212
0.0060857
0.00586297
0.00380059
0.0055522
0.00415467
0.00634317
0.00661102
0.00652775
0.00492339
0.0065755
0.00460975
0.00588574
0.0069207
0.00603077
0.00581147
0.00681187
0.00591616
0.00641304
0.00197399
0.00605962
0.00439446
0.00288544
0.00672297
0.00641646
0.00631516
-0.000395614
0.00259492
0.0100784
0.00905796
0.00390915
0.00941674
0.00620303
0.00309724
0.00505745
0.00578939
0.00481503
0.00642171
0.00313145
0.00447963
0.00526654
0.00419281
0.00509461
-0.000476509
0.00154575
0.00578548
-0.0048304
0.00710779
0.003808
0.00528102
0.00327765
0.00432108
0.00429151
0.00645259
0.0069541
-0.00493219
0.00753786
0.0104252
0.00636524
0.00626803
0.00699725
0.00314003
0.00833201
0.00211881
0.00741318
0.00635688
0.0072395
0.00654529
0.00611197
0.00696662
0.00704651
0.00287343
0.00534129
0.00710207
0.00568143
0.00751512
0.0066475
0.00724732
0.00060113
0.00626061
0.0041579
0.00689632
0.00610529
0.005813
0.0049194
0.0064602
0.00547947
0.00685052
0.00683674
0.00736816
0.00563302
0.00376772
0.00526177
0.00534592
0.00549882
0.00521082
0.00420464
0.0061922
0.00554881
0.00667403
0.00688684
0.00544871
0.00571708
0.00554336
0.00874951
0.003884
0.00777187
0.00326511
0.00305895
0.00592701
0.0074629
0.00494417
0.00803468
0.00483641
0.00625836
0.00517392
0.00411714
0.00370735
0.00182658
0.0102877
0.00824149
0.00834012
0.00842263
0.0106998
0.00535682
0.00430839
0.00599305
0.00376041
0.00689915
0.00606509
0.00672331
0.00702764
0.00845798
0.0100619
0.00810605
0.00779695
0.0100618
0.00696152
0.0071546
0.00730245
0.00568094
0.00828114
0.00681073
0.00589177
0.00625207
0.00649372
0.000866823
0.00638595
0.00768724
0.00622926
0.00442628
-0.000737753
-0.00185912
0.00877912
-0.000131736
0.00586492
0.00850096
0.00689206
0.0079839
0.00582681
0.00612392
0.000850187
0.000664145
-0.00176575
0.000308453
0.00565536
0.00634668
0.00656722
0.00830935
0.00972592
0.0100277
0.00231474
0.00762678
0.00741266
0.00555498
0.00789896
0.00712629
0.00759667
0.00743841
0.0074349
0.00753627
0.00717901
0.00736664
0.00714224
0.008199
0.00531638
0.0045673
9.20026e-05
0.00489736
0.00566493
0.00629506
0.00742573
0.00681634
0.00621459
0.00731696
0.00274834
0.00590152
0.0061137
0.0071434
0.00683164
0.00669016
0.00706451
0.00869498
0.00706173
0.00746021
0.00120468
0.00508209
-0.00472293
0.00645145
0.00582483
0.00628303
0.00695618
0.00699261
0.00529163
0.00624849
0.0067421
0.0016333
0.00428247
0.00611468
0.00409368
-0.00453856
0.0068212
0.00697373
0.00748879
0.00650858
0.00407069
0.0091461
0.00804814
-0.00591265
0.0103107
-0.00281435
0.00403518
0.000869063
0.00154698
0.0031193
0.00798079
0.0051856
0.00731849
0.0019655
0.00177952
0.00215783
0.000502956
0.00936459
0.00906177
0.00161369
0.00264988
-0.000891643
0.00284039
0.00244636
0.00568024
0.0100813
0.0057829
0.00585317
0.00540879
0.00533269
0.00307477
0.00566632
0.00695868
0.00619647
0.0058393
0.00601646
0.00607744
0.0057819
0.00702254
0.00684851
0.00837305
0.00569559
0.00659538
0.00689217
0.00694656
0.00835954
0.00713618
0.00704002
0.00666502
0.00692576
0.0117181
0.00699682
0.00384482
0.00626952
0.00650138
0.0070567
0.00766047
0.00574762
0.00694138
0.00585237
0.00526769
-0.00347544
0.00716354
0.00605705
0.00722678
0.00705402
0.006716
0.00583042
-0.00451935
0.0042489
0.00317043
0.00725442
0.00659513
0.00607839
0.00608638
0.00732192
0.00683414
0.00667406
0.00787727
0.00664335
0.0061434
0.00574475
0.00630563
0.00582195
0.00674574
0.00536901
0.00683865
0.00615589
0.00648305
0.00887386
0.00700718
0.00627041
0.00702649
0.00775164
0.0034188
0.00131907
0.003333
-0.00334049
0.00560024
0.00681435
0.0101131
0.00380885
-0.00558223
0.00731019
0.00797853
0.00829363
0.00801497
0.00869802
0.00993023
0.0098292
0.00633242
SCALARS CoVolArea double 1
LOOKUP_TABLE default
2049.25
2088.01
2278.52
2341.37
2602.46
1818.82
2978.84
2467.09
1716.17
1980.1
1767.53
1879.54
2496.29
2410.67
3646.46
3353.11
2734.29
3010.12
2976.23
2857.45
2626
3014.58
2485.53
3103.29
2956.56
2553.43
2322.62
2488.92
2811.38
2974.19
2535.79
2967.94
2587.01
3095.45
3265.91
3147.79
3674.62
2605.07
2667.11
3090.31
2431.74
3014.25
2089.96
3336.58
2088.28
2232.99
2516.27
2487.27
2013
2315.78
2322.3
2469.99
2366.58
2077.62
3386.25
2354.73
2545.06
2114.96
2906.51
2690.51
2613.31
2986.66
2903.25
3374.41
2960.46
3059.6
2376.66
2910.6
3257.2
2318.93
2943.04
2609.49
2309.64
3427.73
1651.38
3060
2559.9
3742.32
1965.02
2359.47
2287.79
2181.74
2391.37
2368.87
2810.53
2475.26
2607.67
2901.73
3300.18
3294.87
2873.85
3263.34
2319.15
2881.47
2400.43
3163.73
2733.58
2354.24
2663.21
2361.92
2895.85
2921.28
2752.72
2726.59
2492.68
3288.07
2959.27
2551.03
3127.42
2613.39
3038.3
2554.72
3285.65
3092.75
2931.53
2747.03
2937.81
2353.12
3174.51
3327.72
2951.67
3283.71
3058.98
3145.06
3660.55
2980.16
3230.36
2897.54
3017.36
2621.6
2534.07
2940.94
2601.26
3086.92
2515.3
2770.9
2472.49
2772.26
2932.08
3194.39
2989.74
2455.96
2929.08
3043.43
2395.33
3452.57
2361.07
3267.68
2968.83
2831.34
2913.35
3247.93
2715.19
2902.85
2666.81
2921.58
2753.06
2796.93
2956.7
3530.67
2269.88
2144.51
2230.37
2029.57
2305.46
2827.84
2263.9
2138.59
2837.82
2580.24
3917.9
2233.7
2129.92
1961.59
2378.92
2157.26
2201.2
2763.48
2440.57
2873.19
2100.37
2207.91
2234.14
3041.25
2049.81
2525.55
2263.08
2186.28
2384.32
3200.72
2720.32
3394.56
2362.08
2512.23
2993.69
2168.42
2337.99
2232.61
2635.56
2137.6
2031.51
3335.88
2511.77
2473.37
2493.15
3378.32
2415.35
2269.32
2303.53
2682.32
2227.3
2409.79
2777.99
2157.34
2975.17
3390.42
3470.81
3037.02
2547.74
2575.52
2823.77
2407.21
2734.05
2556.65
2985.72
2531.71
2492.62
3077.43
2614.18
2744.14
2486.87
2863.12
2877.59
3022.72
2903.32
3149.05
3013.68
2804.69
2858.74
3053.55
3212.7
3466.96
3662.13
3623.53
2647.05
2369.62
3166.3
2841.26
2442.04
2658.61
2912
2955.52
2936.11
3191.89
2942
2753.94
2919.51
3183.53
2427.26
2695.95
2399.3
2735.8
2413.81
2113.59
2609.98
2793.77
3129.91
3538.42
3542.24
3321.33
2273.99
2447.77
2297.8
2212
2198.86
2640.22
2553.48
2466.85
2250.08
3032.24
1909.65
2150.91
2472.84
2093.23
2408.09
2997.95
2919.12
3459.75
3625.13
2177.2
2421.96
2236
2033.74
2317.39
3775.53
2734.42
2240.64
2475.55
3351.62
2278.96
2257.92
2405.66
2209.64
2302.6
2086.02
2881.29
2110.83
2250.65
2338.93
2968.97
2235.11
2774.4
2316.53
2223.75
2408.48
3390.78
2626.67
3392.23
2445.7
2305.21
2661.88
2467.53
2465.8
2541.25
2747.7
2510.12
2514.43
3082.96
2703.32
2672.82
2448.2
2628.03
3313.96
3227.93
2963.66
2868.7
3099.11
2632.63
2811.71
3124.66
3257.23
3192.34
3483.77
3304.52
2493.67
2356.72
2821.17
2737.07
2147.84
2751.42
3159.2
2503.9
3517.18
2207.21
2714.91
2276.87
3260.44
2843.05
3007.62
2718.03
2472.16
3253.23
2812.25
2654.6
2281.82
2350.52
2322.05
3030.96
2641.06
3501.9
2324.69
2140.76
2735.71
2421.25
2573.28
2302.27
2517.69
3026.94
2988.33
2909.84
2787.05
2634.5
2784.85
2860.83
3133.84
2654.4
2995.41
2564.96
2472.67
2662.67
2630.72
2531.89
2890.53
3150.79
3199.93
3029.86
2988.3
2981.81
3192.08
2964.36
2828.52
2980.19
3234.35
2522.18
2686.65
2874.87
2715.43
2476.08
2809.34
3168.88
2314.93
2761.62
2285.52
3194.61
2897.61
2700.61
2303.8
2714.16
2766.86
3616.7
3396.69
3595.2
3156.92
3129.14
3167.19
2680.89
2704.07
2738.26
2794.85
2688.26
3292.27
2618.95
2600.33
2481.64
2995.26
2634.46
2742.19
2200.95
2362.83
2599.87
3080.56
2958.84
3012.57
3382.54
3096.91
3069.58
2944.43
2935.04
3142.94
3506.34
3583.72
3761.97
3418.96
2922.25
3118.32
3033.63
3219.92
3498.79
4040.88
3085.24
3366.37
3415.08
3292.65
3031.9
3306.24
3457.78
2886.95
3373.78
3106.44
3994.2
3385.69
3123.34
2704.89
2952.11
3014.29
3630.3
3604.65
3821.33
2634.28
2575.28
3152.49
2652.75
2553.24
2618.51
2861.11
2466.68
2573.24
2785.9
2558.32
2482.91
2590.65
3104.52
3035.75
2805.64
3000.84
2889.48
2723
2431.95
2375.82
2679.36
2815.46
3559.42
3434.89
3490.05
2621.54
2601.4
2784.82
2611.9
2298.96
2531.3
2576.59
3120.47
2746.65
3673.6
2831.15
2743.72
2502.45
2661.22
2525.38
2723.26
2228.59
2586.93
2855.83
2604.88
2675.64
2909.31
3738.71
2992.65
3511.69
2904.42
2832.57
2494.87
2382.03
2902.23
3427.1
2340.33
3319.08
2769.92
3125.8
3244.67
2827.16
2416.53
2508.61
2159.87
3276.98
2779.23
2656.6
2882.41
2827.78
2882.15
3088.01
3775.78
3413.11
3434.93
3261.94
3130.64
2794.45
2623.15
2736.81
2554.08
2772.01
3232.46
2474.75
2734.52
2544.08
2499.38
2732.69
3544.24
3227.33
3257.4
3023.6
3121.03
2663.32
2676.79
2556.57
2974.44
3019.88
2906.2
3068.94
3282.83
2489.43
2367
2257.23
2573.39
2896.52
3541.83
3379.12
3192.52
2717.14
2609.12
2473.01
2814.96
3576.33
2488.89
2559.46
2409.53
2496.78
2690.35
2494.07
3632.54
2791.11
2550.8
2501.42
2925.94
2882.91
3469.03
2393.08
2621.98
2398.37
2500.39
2852.22
2674.9
2879.4
2565.84
2540.59
2660.71
3002.15
2978.51
2843.13
2765.02
2860.1
3136.73
3240.37
3248.85
2137.12
3362.15
2907.39
2946.41
3496.48
2370.06
2267.71
2177.43
2641.21
3251.98
2354.15
2539.93
1989.85
2324.43
2459.97
2910.16
2278.88
2822.21
SCALARS SignedDistance double 1
LOOKUP_TABLE default
182.747
180.437
156.346
145.797
131.573
189.772
203.102
140.599
191.342
188.737
207.272
202.311
241.785
187.487
229.206
226.276
181.664
127.993
136.244
153.229
170.973
224.077
180.18
225.857
152.486
146.137
190.516
197.398
150.764
187.73
171.967
145.549
183.556
144.369
117.447
122.789
155.583
156.355
153.293
182.41
181.175
208.522
207.224
235.927
214.564
192.765
213.783
221.105
208.705
209.42
186.968
210.06
183.094
205.781
226.513
178.568
207.973
212.239
143.756
154.6
148.61
142.222
134.652
132.508
132.285
146.802
169.694
142.079
147.09
201.522
171.286
175.861
201.717
228.361
222.088
238.963
217.343
223.89
204.418
182.89
203.326
207.468
205.13
183.601
165.289
167.005
181.261
168.994
139.102
148.466
135.105
204.804
202.855
213.592
208.903
189.236
193.422
169.406
164.247
193.652
138.913
142.632
197.176
164.74
173.168
140.299
138.899
165.484
140.936
160.971
163.781
193.592
178.366
143.846
155.162
166.346
156.277
188.218
107.651
118.405
133.338
152.518
143.723
108.947
125.461
145.296
152.711
159.941
144.678
138.241
146.425
144.366
180.059
168.052
179.919
157.596
156.489
195.267
178.13
199.65
192.874
183.426
183.703
215.735
205.439
196.516
204.765
141.99
161.727
160.522
158.764
127.363
173.225
181.541
167.543
200.825
156.367
161.985
139.364
217.651
210.297
200.421
194.288
209.479
199.302
239.345
221.087
221.522
225.352
221.844
230.219
197.314
206.528
211.201
200.029
202.742
189.5
235.946
217.465
233.612
199.508
198.593
188.232
217.902
209.278
216.943
186.73
198.267
198.485
229.481
211.483
222.99
201.525
184.474
221.958
215.044
179.614
198.578
195.022
198.321
206.967
225.948
213.891
212.913
214.795
227.321
181.131
198.239
197.541
196.273
195.92
178.934
221.611
211.167
219.381
219.441
217.627
205.063
168.31
167.011
161.977
163.247
140.954
149.167
131.844
164.321
162.062
125.347
141.355
131.391
159.332
165.173
136.471
132.366
135.366
128.164
131.621
135.214
130.24
132.462
127.2
148.168
132.47
128.375
158.205
174.431
142.454
146.846
166.593
153.177
155.853
140.838
139.473
152.688
145.442
145.961
140.655
142.347
208.163
193.117
189.88
169.081
188.034
190.855
163.297
179.273
166.396
145.451
155.597
153.576
187.403
186.253
184.335
203.126
220.162
216.652
217.189
236.586
227.877
226.953
209.151
202.221
220.553
212.781
244.944
230.804
219.084
222.471
232.019
214.528
229.461
227.822
206.713
191.808
224.877
219.043
215.207
215.517
225.77
186.677
195.361
191.986
193.088
180.693
204.451
211.803
197.953
196.471
186.175
216.271
206.78
218.086
181.232
194.475
192.608
213.613
204.059
215.754
177.036
178.277
175.876
175.466
156.195
165.494
155.463
188.59
184.778
164.917
172.685
167.248
180.524
177.735
143.784
144.572
134.005
145.301
142.713
134.182
143.001
143.707
151.365
166.138
157.655
155.771
211.068
201.377
213.64
212.356
200.149
207.172
204.838
216.993
217.734
201.596
207.747
201.04
217.281
215.224
170.366
174.371
161.222
200.284
189.908
197.921
178.865
181.154
188.877
208.744
203.775
203.542
183.545
199.151
156.485
167.727
188.809
178.142
175.646
141.262
139.673
146.558
140.147
140.929
139.756
144.029
200.528
181.838
185.891
175.98
178.379
191.534
160.167
167.594
155.566
149.888
150.565
162.086
136.532
139.954
136.233
135.481
140.613
139.316
145.437
171.028
155.697
151.83
152.014
163.979
141.798
135.866
176.412
176.283
191.541
156.498
165.72
152.398
180.013
176.549
164.337
139.465
147.144
149.093
158.515
170.849
161.32
168.075
166.688
185.143
134.692
149.836
126.315
176.309
177.8
185.66
147.817
161.357
157.467
186.197
175.403
172.583
121.609
116.063
134.38
112.303
108.845
107.634
136.983
122.948
131.432
146.72
133.814
126.029
157.456
142.109
133.031
149.483
148.853
159.335
168.405
117.894
117.603
116.878
113.574
111.343
117.515
116.185
148.826
160.951
168.662
163.254
159.484
148.336
140.229
151.521
135.411
139.388
135.469
158.62
137.268
138.615
150.875
145.365
143.557
138.742
147.163
148.711
142.702
147.205
142.104
149.564
143.613
148.062
198.846
189.045
195.877
160.33
176.022
166.995
166.329
172.128
159.953
152.362
152.592
157.788
143.707
148.264
152.093
145.866
168.817
154.575
168.469
199.65
198.252
195.771
199.614
188.199
177.677
164.776
203.271
202.38
186.171
185.47
197.373
189.995
181.18
201.826
196.771
166.703
184.253
175.514
161.199
178.542
171.642
177.199
187.259
205.619
207.82
204.599
202.722
208.897
198.897
191.584
197.195
197.732
190.345
193.917
206.288
201.449
201.522
190.742
200.756
195.468
141.457
144.983
141.486
137.392
140.801
174.616
169.591
171.527
163.011
152.718
175.61
152.303
163.565
171.036
169.32
150.426
159.403
149.608
179.276
139.45
155.761
175.798
179.387
118.68
142.858
127.562
114.826
119.837
191.26
189.504
190.845
174.076
160.881
138.098
147.822
162.8
196.789
168.771
178.984
199.686
199.629
155.754
178.173
166.948
155.868
159.598
215.454
203.712
211.618
208.664
194.782
173.437
182.267
188.104
171.492
168.779
168.784
157.39
146.813
180.806
154.534
166.394
175.787
171.75
138.848
139.126
137.323
136.905
144.15
157.141
148.335
144.787
206.856
211.672
209.308
215.099
221.923
207.314
191.282
203.262
218.335
220.159
185.246
213.556
201.071
182.569
184.443
224.449
205.674
216.333
