# vtk DataFile Version 4.2
vtk output
ASCII
DATASET POLYDATA
POINTS 642 double
-128.647 247.665 -6.7217
126.644 257.695 -10.2382
-123.504 -217.436 41.0485
140.639 -225.254 41.4604
1.32697 -175.954 310.415
3.37048 101.478 273.633
3.16499 -72.9805 -109.558
2.66266 196.802 -190.416
170.347 63.1267 -117.488
169.303 1.57208 207.603
-144.796 61.4126 -116.289
-145.688 6.20342 206.46
-157.807 156.837 53.1292
-93.4328 62.5752 265.834
-33.9069 150.75 120.436
44.6943 152.134 126.508
1.09085 295.961 -26.5567
87.833 297.799 -100.762
-74.613 290.989 -97.7571
-116.159 118.29 -187.618
-188.133 193.46 -40.0394
-154.688 22.9949 33.3103
104.582 66.876 272.136
132.387 129.176 60.958
-118.854 -99.3873 288.9
7.1124 -1.68838 350.544
-153.83 -131.818 -10.7732
-141.502 -139.506 190.998
4.86232 61.3894 -229.985
-94.528 5.76963 -168.141
185.144 192.391 -51.0283
127.588 120.67 -191.087
166.012 -141.483 196.343
135.087 -100.415 292.785
98.4096 -239.877 241.147
-89.028 -236.12 240.012
0.204701 -240.324 39.1605
-82.3483 -208.333 -58.0356
95.5947 -210.405 -59.6077
105.588 3.11615 -170.76
170.146 -142.45 -13.292
175.199 4.51432 57.9315
-153.474 204.863 13.3061
-111.626 137.067 69.0241
-106.459 233.031 14.5638
-127.458 34.4446 240.328
-113.109 71.6585 208.781
-131.521 49.9114 180.129
-19.659 120.988 230.828
-67.8249 99.2958 232.491
-46.5904 86.3763 277.604
-30.4936 257.529 19.19
-54.6704 291.12 -21.086
30.937 123.865 230.113
6.02629 150.363 132.051
69.5231 295.445 -21.6095
42.7648 257.628 19.7503
101.766 238.167 11.9366
-45.4879 318.88 -55.9286
-98.7452 279.577 -50.3972
106.357 296.917 -56.0849
56.4827 319.934 -56.1788
-41.0968 250.744 -154.834
2.07419 298.509 -103.534
49.0105 252.598 -156.699
-154.623 235.319 -72.245
-169.834 223.513 -26.5062
-68.2141 157.261 -199.982
-103.71 210.123 -141.843
-171.126 169.905 -63.1804
-162.164 175.313 -99.3133
-142.548 84.7753 -149.095
-182.029 188.246 -8.34241
-141.373 82.664 -19.9708
-187.79 172.454 -32.8343
-140.98 165.014 44.7174
-148.17 1.25966 140.197
97.1972 145.778 88.7031
151.811 216.226 6.29949
58.6044 87.6495 280.774
77.44 103.73 236.732
155.597 41.9044 183.886
124.732 73.1647 217.974
142.212 35.5125 245.827
-48.5136 39.2045 315.027
4.65214 59.0064 317.316
-136.463 -50.6675 250.389
-108.33 6.26175 286.345
3.71511 -50.505 343.972
-53.5067 -33.6744 328.345
-75.8033 -143.55 315.15
-159.071 -52.1776 98.7112
-144.88 -73.2393 209.485
-134.996 -52.5887 -51.809
-159.269 -72.6587 15.8832
-139.967 -146.583 117.061
-156.889 -137.225 31.6581
-146.081 -180.154 8.45863
-116.531 56.9025 -189.306
-132.876 33.351 -139.957
3.90633 108.074 -232.576
-69.2834 89.3764 -224.228
-71.0162 -39.87 -150.684
-63.715 24.9418 -208.565
2.35933 6.42669 -204.042
112.481 216.677 -148.654
75.224 160.305 -201.285
171.754 230.105 -27.4537
159.664 244.16 -78.3421
164.688 82.3974 -153.59
169.822 172.382 -108.744
172.332 136.673 -74.2166
157.278 -155.727 115.249
153.795 -194.932 215.25
116.6 -226.402 178.011
156.78 -50.741 255.07
167.899 -129.084 244.701
169.615 -77.9924 209.164
62.8928 -217.772 300.765
125.703 -183.963 288.79
84.0541 -148.507 315.675
59.8927 -246.913 192.311
92.7364 -245.426 41.2574
-56.1184 -216.075 298.289
1.63814 -240.211 241.528
-80.1018 -244.055 42.0279
-54.3735 -245.684 189.882
-102.836 -224.659 173.269
65.2097 -244.043 -16.0506
125.598 -232.825 -16.0679
-110.84 -226.508 -13.7242
-58.718 -243.929 -15.7405
62.3342 -168.56 -84.5166
0.689494 -205.298 -57.6133
-54.5821 -167.403 -85.1933
148.007 -186.259 -41.8017
167.359 -190.926 6.05983
75.7728 -39.5227 -150.684
101.468 -155.332 -84.2286
156.86 -43.0762 -53.6852
144.094 -107.311 -59.2016
152.345 33.8385 -142.748
173.925 -143.414 32.3726
155.389 60.1909 -45.5971
175.608 -84.8994 19.0556
175.106 -55.2306 102.896
171.65 6.34694 152.905
59.7534 -27.6148 338.117
119.837 5.14944 293.351
57.9012 38.3902 321.157
-133.981 -186.279 215.816
-115.627 -179.179 283.073
-143.101 -131.523 241.229
-89.4643 -149.765 -83.7004
-129.857 -178.788 -37.6067
-131.33 -99.5334 -56.3115
131.096 57.191 -192.628
69.9583 23.6734 -210.395
72.149 89.1835 -227.782
175.907 80.9198 43.7067
180.947 165.479 -30.2974
175.501 194.657 -17.9441
-142.498 227.056 3.80626
-131.382 221.26 15.2211
-117.591 241.013 6.28015
-150.104 137.555 60.78
-142.976 198.756 21.6348
-159.527 181.18 19.5271
-77.1995 215.641 30.941
-119.685 212.739 24.8461
-74.1694 144.709 95.0621
-138.655 20.316 223.184
-133.147 39.2068 213.01
-140.617 24.2082 198.667
-106.63 67.299 239.292
-121.069 54.8281 227.496
-112.686 48.4979 254.608
-135.399 111.283 123.034
-123.57 61.9389 193.756
-126.569 88.158 141.782
-8.43185 112.724 252.648
-33.3346 104.682 255.717
-18.4591 94.8036 277.136
-53.4205 115.232 209.807
-44.2155 111.12 233.296
-28.9779 126.124 209.809
-70.6642 75.598 273.716
-59.2414 94.3493 255.556
-80.955 83.4684 251.129
-99.0967 96.5109 165.707
-93.5328 86.2195 221.462
-82.3898 102.833 192.076
-78.8446 257.801 -2.83671
-90.428 267.851 -17.494
-32.9859 226.017 45.3199
-59.133 246.642 14.5195
-37.9591 298.039 -22.2512
-43.8542 277.745 -4.55685
-24.9394 279.947 -1.77664
16.861 113.61 252.445
4.67305 124.019 232.133
30.6073 149.992 132.902
18.1928 131.856 211.654
41.3105 130.334 208.849
-6.27726 131.183 212.354
-14.5546 151.226 129.539
92.0275 280.66 -18.9143
82.3873 269.629 -5.18792
116.079 250.328 0.197267
32.4224 278.87 -3.06389
59.44 280.335 -5.11559
49.4491 299.874 -23.5813
73.4267 215.725 41.7782
64.9392 253.945 14.4273
42.1017 225.505 48.9959
-9.1448 225.083 56.6885
17.2256 223.931 58.5455
1.24744 256.24 26.7799
-74.3433 292.408 -39.1405
-119.606 265.16 -28.5528
-27.5269 312.423 -43.2055
-49.2829 309.36 -43.434
-87.1602 293.738 -71.6396
-65.1164 309.657 -57.3444
-61.2782 314.671 -72.4104
114.557 278.059 -38.3859
86.8039 302.467 -41.7656
74.7974 319.125 -73.8863
82.1665 314.69 -57.2857
100.81 304.664 -73.0646
63.979 311.506 -43.0747
34.6603 312.064 -44.2525
-20.1229 226.855 -176.198
2.41744 253.376 -160.523
25.8244 227.957 -177.434
-45.7236 301.927 -105.812
-24.3509 277.84 -131.431
-58.352 274.188 -125.091
70.2869 277.983 -126.819
30.3115 277.627 -131.559
55.1127 303.282 -105.81
2.55039 315.629 -55.8467
33.5635 319.731 -76.0741
-27.0822 320.176 -76.1438
-146.276 251.407 -33.8834
-151.174 238.121 -18.2333
-115.153 263.736 -84.3636
-131.854 260.706 -57.7326
-186.7 205.094 -33.178
-166.602 232.16 -43.1033
-180.452 209.39 -55.3081
-36.0441 178.626 -195.702
-53.2438 210.551 -178.399
-109.209 163.637 -165.637
-82.5173 186.427 -175.077
-94.9208 136.362 -198.113
-70.5363 234.624 -153.129
-88.0633 250.687 -119.944
-149.523 102.431 -94.7479
-151.052 119.712 -105.534
-145.91 71.9789 -131.304
-177.603 187.846 -69.1988
-168.112 175.781 -80.9776
-190.119 192.858 -48.3583
-131.077 101.174 -169.988
-146.163 133.099 -122.117
-134.645 142.647 -142.924
-135.934 228.129 -106.581
-142.308 190.037 -122.288
-166.538 203.247 -89.1904
-162.622 216.534 -6.35329
-187.629 195.256 -30.1932
-181.612 200.51 -17.6375
-170.056 192.867 4.98014
-173.459 178.168 15.1946
-145.849 68.7142 -92.4559
-160.165 140.563 -48.3142
-181.705 129.669 -14.4619
-183.652 141.544 -19.3341
-165.719 58.3309 16.5315
-187.859 174.641 -33.1894
-186.206 184.301 -33.2631
-140.603 27.4531 172.116
-146.062 6.71787 188.639
-160.759 161.942 45.7035
-129.937 80.5749 110.778
-155.343 0.297838 83.6445
-143.675 41.2255 106.093
-159.302 70.98 12.695
-192.048 197.71 -29.0115
-179.078 170.369 -34.006
-179.388 186.347 -1.34557
133.564 227.787 12.4279
145.135 233.07 1.99708
69.6111 150.167 110.877
113.677 211.99 26.8574
151.473 200.437 9.72931
137.814 209.332 17.8251
117.834 139.922 69.7412
27.8846 95.0497 277.961
44.7632 106.447 256.616
91.645 86.7351 256.995
70.8145 96.8351 259.131
81.9994 78.6822 278.873
55.4894 115.39 233.845
61.583 121.743 211.891
164.822 21.6899 196.384
151.413 38.1775 215.332
158.206 16.554 226.493
128.368 82.7869 172.834
141.218 59.3943 200.865
139.833 71.4005 154.387
124.852 52.8745 261.128
133.789 56.5347 234.445
117.612 70.5294 247.014
88.6412 109.438 203.357
102.939 90.0739 229.619
111.184 96.487 188.218
-19.6485 75.4236 298.646
3.52397 83.8783 296.047
-74.6551 54.6263 290.738
-49.7834 65.5463 297.342
6.04729 28.1278 336.607
-20.0708 47.9657 319.887
-18.0738 18.7291 337.195
-143.105 -19.104 229.293
-134.047 4.79536 246.01
-112.561 -45.0372 286.389
-125.159 -20.2678 267.884
-131.418 -76.0646 270.01
-119.858 23.3328 264.248
-103.479 36.9328 277.31
-1.49912 -119.243 315.035
-42.3416 -104.166 319.321
-49.0299 -160.309 316.724
-15.2672 -10.3735 348.098
-22.6518 -40.2411 341.002
7.06116 -17.5446 356.54
-99.0969 -123.105 304.569
-70.837 -88.8441 318.615
-91.7296 -71.3895 309.111
-80.9555 23.9891 303.483
-85.5292 -15.2235 309.908
-48.0781 6.24142 328.732
-146.952 -21.3996 175.745
-146.036 -29.8453 206.673
-161.038 -22.4179 74.0654
-157.43 -23.5892 114.635
-143.851 -115.229 201.749
-146.14 -63.52 162.086
-145.456 -96.4769 148.999
-136.268 26.7451 -102.955
-138.203 -0.83934 -50.1474
-158.343 -106.753 2.50487
-155.484 -76.0269 -4.62532
-150.464 -106.577 -20.9436
-154.475 -25.0759 16.3114
-160.331 -24.2612 37.0348
-127.729 -200.322 68.0615
-144.886 -179.985 36.4684
-137.771 -201.407 21.5244
-138.672 -154.434 107.517
-147.083 -156.429 59.0029
-134.175 -153.729 168.151
-153.787 -155.81 -2.30717
-155.584 -156.761 21.7163
-158.24 -135.538 11.7081
-160.182 -60.6744 44.3583
-159.226 -108.622 20.6359
-156.227 -95.5974 60.0757
-140.015 57.9313 -148.49
-139.156 45.8212 -128.809
-118.455 85.4577 -191.477
-130.824 70.8477 -172.42
-120.276 24.5397 -156.034
-126.337 45.3501 -166.83
-109.634 32.9648 -180.693
2.63147 147.324 -214.506
-38.012 133.362 -220.109
-34.1035 74.4233 -230.575
-35.6968 98.8759 -231.325
5.54347 84.0894 -237.507
-72.1921 118.786 -219.497
-96.0999 105.275 -211.171
-55.4204 -48.3091 -133.165
-33.6004 -6.67496 -189.722
3.00394 -10.681 -185.131
-82.2541 14.4936 -189.902
-59.828 2.42956 -190.43
-71.1329 -17.3153 -163.682
2.6803 28.4857 -219.212
-34.6075 14.071 -209.16
-35.9642 38.1448 -222.01
-97.5846 71.6442 -211.045
-68.7454 54.9978 -221.448
-92.6763 41.2533 -203.68
[...]
POINT_DATA 642
SCALARS Mean_Curvature double 1
LOOKUP_TABLE default
0.021647
0.0264924
0.0183074
0.0182669
-0.00906948
0.0181968
-0.0107719
0.00146668
0.0326953
0.0202586
0.00935163
0.022577
0.187443
0.0130993
3.40201e-05
0.00596323
-0.00677004
0.0206634
0.0144449
0.0145153
-0.00587913
-0.0331053
0.0155754
0.000934868
0.0110837
0.0142307
0.0109497
0.00891497
0.00101054
0.00691477
0.0114562
0.0116938
0.0101298
0.0120716
0.0143111
0.0175794
-0.00277753
0.0194429
0.0184871
0.0070999
0.0089079
-0.00197299
0.0238163
-0.0159813
0.00640936
0.0134494
0.0122228
0.00168112
0.0104284
0.0059901
0.0140565
0.00893362
0.0143164
0.0123654
-0.00468623
0.0201734
0.00861035
-0.00425946
0.0425583
-0.00312649
0.0286514
0.035569
0.0108732
-0.002133
0.0110367
0.0138196
0.0183374
0.00843313
0.00159929
0.000376463
0.0218014
0.0146119
0.0756249
-0.0184609
0.380285
-0.0328895
-0.00103344
-0.000247815
0.0253877
0.0140265
0.00663643
0.00738095
0.00472661
0.011402
0.0102872
0.0148096
0.00230111
0.0134868
0.00762094
0.00456037
0.0137419
0.00575064
-0.000199905
-0.00346371
0.00954916
-0.0431359
0.00737312
0.00975521
0.0198534
0.0205906
0.00843108
0.0129333
-0.0671852
0.015115
0.00920946
0.00592113
0.00559042
0.0296456
0.0199773
0.0220981
0.011811
-0.0202118
-0.0435625
0.0243599
0.0111359
0.00458643
0.0193768
0.00235262
0.0211712
0.0160453
0.00993676
0.00661567
0.00954046
0.0204934
-0.010731
0.0140324
0.0058397
0.0170293
0.0155312
0.0222125
0.0214521
0.0173488
0.0113129
-0.00667835
0.0123952
0.0190337
0.0269764
-0.0107748
0.0115804
0.00339971
0.0230468
0.0167962
0.001788
-0.0126306
-0.00672084
-0.000290073
0.0102524
0.00834772
0.0085604
0.0102784
0.013089
0.0178451
0.0133084
0.00645601
0.0127575
0.0353889
0.0176994
0.0140894
0.0108778
0.0360228
-0.00188145
0.00152603
0.0150578
0.0158943
0.0200559
-0.0473183
0.00457172
-0.0371736
-0.00633479
0.00854269
-0.00276222
0.0141838
0.0118318
0.00771933
0.0139784
0.014259
0.0136437
0.0870806
0.020346
-0.0832644
0.0111892
0.00956474
0.00816202
0.00525974
0.00807963
0.00869921
0.0131402
0.0120623
0.0126264
-0.00487173
0.00885979
0.0082428
-0.00246834
0.00247854
0.00114517
-0.00142619
0.0196428
0.00626732
0.00848574
0.00944287
0.0104935
-0.000672323
0.00755653
0.0153473
0.0123078
0.00457193
0.0117716
0.00109982
0.00857994
5.37874e-05
0.0126369
0.0143493
-0.00290153
0.00084121
0.00416484
0.0112538
0.00894222
0.00798903
0.0116758
0.0232297
0.0198356
0.0137999
0.024212
0.0268998
0.0349787
-0.00640734
0.0137537
0.0337342
0.037532
0.0328895
0.0140153
0.0108672
0.00910206
0.0110694
0.00993686
0.0208856
0.00602707
0.0102055
0.0119483
0.00215107
0.0147037
0.007981
0.0234019
0.0277182
0.0298975
0.0113348
0.00884379
0.0178885
0.0530468
0.0222421
0.0250935
0.00130438
0.0134421
0.00431884
0.0062158
0.0124007
0.0111801
-0.0019409
-0.001402
0.00747139
0.0154097
0.0255193
-0.000247165
0.10233
0.00992217
0.00332945
0.00454876
0.0125763
0.0105614
0.021065
0.0122471
-0.140175
0.021231
0.00915611
0.229759
0.00386068
-0.0147089
0.20578
0.0129505
0.0663371
0.0188794
-0.173612
0.00257602
0.0103435
0.0839993
-0.0206654
0.00347876
0.00288209
-0.0204782
0.141439
-0.0468846
0.00401485
0.0227775
0.0217093
0.000724846
0.000834774
0.00510589
0.0145985
-0.00177989
0.00578164
0.0080017
0.0127069
0.0122645
0.0158128
0.0106584
0.00711393
0.0158255
0.00832294
0.00955305
0.00589158
0.00750553
-0.0007585
0.0164456
0.0100451
0.0137924
0.00636989
0.00810341
0.00603163
0.0083587
0.0184481
0.012771
0.0133069
0.0121942
0.00861735
0.0129566
0.0127623
0.0112477
0.00273526
0.00941873
0.0139698
0.0140315
0.0139075
-0.00549824
-0.000745573
0.00587524
0.0196715
0.00845505
0.0407277
0.00934478
0.0110617
0.00987078
0.0111127
0.00958678
0.0106533
0.000518906
0.00453429
0.00963068
0.00937499
0.00162796
-0.00278602
-0.000373777
0.00591239
-0.0020643
0.0147715
0.00708328
0.00430084
-0.005148
0.0235288
0.00583582
0.00891309
0.0169874
-0.0251481
0.0489275
0.0110389
0.0203671
0.0196278
0.0159158
0.00364859
0.00639569
0.000650571
0.0228417
0.00690506
0.0148653
0.0156599
0.00786886
0.0137698
0.0134248
0.00163444
0.0086212
0.00874961
0.014486
0.0244814
0.0179558
0.020357
-0.0134519
0.00950861
0.000923531
0.0137762
0.0136545
0.0328904
0.0103003
0.015223
0.0123772
0.0197773
0.017915
0.0183796
0.00988171
0.0017982
0.000400376
0.010298
0.0119448
0.0102287
0.00543062
0.0159505
0.0260003
0.0247883
0.0123593
0.0309016
0.0110776
0.00616111
0.0276282
0.0147694
0.0368812
0.000731017
0.00594284
0.0110974
0.0188107
0.0136039
0.0198068
0.011989
0.019941
0.00495269
0.00883561
-0.000704084
0.00628478
0.0177095
0.00910934
0.00751449
0.0177681
0.0132682
0.0225462
0.0155016
0.00969077
0.0083066
0.0152056
0.0172257
0.00485849
0.0011219
0.00527215
0.00775055
0.0249439
0.0231527
0.00409094
0.0175571
0.0215484
0.0211456
0.00713436
0.0148906
0.0123652
0.0206496
0.019811
0.013257
0.0198229
0.0162073
0.0183414
0.011088
0.00733217
-0.000747545
-0.0120551
0.029505
-0.0077487
0.0142605
0.0192715
0.0206724
0.0156644
0.013054
0.0135175
0.0197537
0.0063625
-0.00582733
0.00453883
0.00875712
0.0140175
0.0152474
0.0209691
0.0327562
0.0355283
-0.0113155
0.0217278
0.0186634
0.0125276
0.00514274
0.0211856
0.0232082
0.0135843
0.0185466
0.0214806
0.0198072
0.024497
0.0194975
0.0133246
0.0109009
-0.00381269
-0.0107968
0.000341687
0.0116191
0.0140626
0.00656244
0.0137909
0.0169723
0.0123442
0.000176671
0.01746
0.0139088
0.0226994
0.0207547
0.017178
0.0191176
0.00926252
0.0260281
0.0147001
-0.0113283
-0.0726494
-0.01967
0.107357
0.0403993
0.0225933
0.0210273
0.0122451
-0.067222
0.0196221
0.0119034
-0.0294925
0.00560591
0.0061721
0.0725683
-0.01385
0.0180504
0.005435
0.0130668
0.0190905
0.0214043
-0.00129219
0.0321282
-0.0113134
0.00329556
0.000548646
0.00304047
0.00145936
0.00820266
0.00688462
0.015193
0.000652662
0.0166153
0.00260097
-5.11949e-05
0.000641937
-0.00144965
0.0248141
0.0265716
0.00270499
-0.000422675
-0.0028662
0.00591008
0.00412895
0.0155407
0.025734
0.00861994
0.0138541
0.0109466
0.0101185
0.00983821
0.00528041
0.0137417
0.00801236
0.0142093
0.0139611
0.0108797
0.00922651
0.0159105
-0.00382196
0.012684
0.0158814
0.0143521
0.0181436
0.021696
0.0106983
0.0178008
0.0174105
0.0209578
0.0132495
0.00337131
0.00143808
0.0162314
0.0134491
0.019373
0.0219573
0.017758
-0.0771037
0.015642
0.028511
0.126129
-0.0249644
0.0234852
0.0142432
0.0138206
0.0188892
0.0151001
-0.070611
-0.0198718
0.122408
-0.0400272
0.0153854
0.0151725
0.0148964
0.00623967
0.0140351
0.0133372
0.0125315
0.0210188
0.0171189
0.00872414
0.0100827
0.0136264
0.0109144
0.0135768
0.00768331
0.0180529
0.0126267
0.0193498
0.0170298
0.0165494
0.0130551
0.0181378
0.00696142
-0.0155515
0.00806181
0.00236597
-0.00598984
0.0022584
0.0353929
0.0296282
-0.00411662
-0.0282847
0.0280653
0.00322259
0.016443
0.0315962
0.0268999
0.12466
0.0496358
-0.0453052
SCALARS CoVolArea double 1
LOOKUP_TABLE default
614.774
687.822
914.459
981.281
1645.85
550.548
4375.67
1552.14
326.558
597.699
618.026
514.223
645.114
738.296
3411.65
2245.73
1308.99
1233.24
1298.78
1246.1
225.906
1244.65
744.594
2247.95
1379.31
630.954
652.658
1480.62
1210.66
2381.2
488.205
1401.32
1460.63
1555.99
1342.85
1180.85
3456.14
779.304
849.501
2436.74
825.62
1974.54
454.962
3277.09
857.43
630.97
1044.19
1379.58
599.435
817.512
768.269
1072.51
751.175
642.529
2215.62
593.299
1194.09
1098.1
567.215
899.773
681.84
667.416
1403.82
1863.22
1520.29
1304.93
525.423
1475.16
1967.83
1195.58
1007.17
1006.61
173.26
4464.2
156.891
4434
1665.35
2881.85
321.496
813.634
755.084
914.236
901.038
800.901
1095.11
891.58
1107.96
1205.16
2143.27
1685.14
1293.01
2237.77
1370.21
2029.15
937.269
2459.34
1307.51
661.719
731.219
701.168
1391.93
1025.4
959.378
866.475
1012.28
1888.54
1587.15
639.439
1259.61
876.597
1366.73
884.643
2357.99
889.866
1431.15
1324.32
811.212
1145.9
1406.81
1372.73
1525.2
2168.3
1604.57
1388.94
1926.28
1382.49
1859.41
1320.19
1269.71
803.564
736.894
1109.58
1444.77
1561.7
1177.31
796.346
585.249
1040.49
1251.37
1935.03
1530.86
890.009
1663.79
3528.42
997.779
2666.18
1162.49
1556.84
1289.22
1078.17
870.696
1194.38
691.134
1282.13
835.001
1140.79
818.374
989.315
1061.74
2137.55
999.183
389.51
530.9
431.359
625.433
2167.8
1281.01
635.487
2934.99
2036.18
4197.4
633.671
612.746
526.52
701.155
607.794
620.795
1573
938.913
1488.86
634.023
706.441
709.962
2200.51
662.606
1348.27
690.65
651.712
719.124
2208.82
993.956
2285.4
947.905
946.597
2308.18
1267.34
684.532
770.947
1185.88
696.521
572.836
2001.22
1248.28
1105.12
1223.03
2096.91
799.955
786.305
685.65
1379.31
715.303
848.522
2464.57
1153.91
1938.64
1889.83
2078.25
1535.81
845.88
866.34
810.741
503.932
991.14
568.872
811.768
897.591
653.649
892.717
481.406
817.383
528.84
892.47
1499.94
1617.85
1554.13
1335.22
1631.47
1307.45
1360.43
1750.15
1483.47
941.821
1442.82
1341.75
738.932
618.823
1617.54
1106.44
372.068
794.889
773.248
1776.28
1474.38
1847.87
1608.59
1235.59
1554.42
1828.02
1284.55
1221.24
744.748
467.337
753.464
330.442
1105.25
1267.16
1636.28
1839.97
1801.35
1154.87
575.395
126.226
390.006
430.985
262.277
2724.1
2236.46
561.817
1291.07
1831.03
584.948
86.5153
1548.09
824.996
1125.4
2690.5
2129.31
4218.61
4496.38
245.868
2188.95
679.77
542.237
507.133
3127.92
1985.44
994.839
1241.63
2377.87
808.712
778.181
689.517
644.542
675.17
642.201
1632.57
576.159
746.512
796.688
1857
923.622
1959.66
699.332
688.318
694.925
2165.2
934.32
2122.12
862.496
747.902
930.868
888.067
866.285
961.714
950.936
967.472
954.415
1546.12
1183.56
1143.47
813.17
860.818
2990.48
2182.62
1668.92
953.247
1526.54
681.2
1268.12
1737.56
1727.96
1282.06
1736.93
1406.47
1642.36
952.626
1428.18
1629.09
1333.95
2185.34
3206.2
1448.36
4012.41
649.284
1859.94
1148.7
3038.05
1366.95
2119.2
1282.9
802.131
2618.35
880.685
858.182
599.462
668.702
533.511
1519.52
954.833
2991.49
579.671
577.64
844.89
693.248
1331.45
613.101
757.309
1997.13
1628.59
1144.83
1124.31
912.968
1133.17
956.425
3171.26
1436.27
3053.73
840.448
887.139
938.573
1146.56
926.693
1177.07
974.867
1100.41
890.201
1570.37
1846.26
1703.51
1535.14
1343.29
1579.41
1848.76
752.299
876.417
803.518
896.48
525.995
1002.09
1497.68
502.635
1108.8
501.38
1856.59
1433.14
1170.91
595.84
1187.11
768.01
1877.16
1292.87
1959.65
2110.83
2335.05
1594.9
743.612
1394.15
1239.31
1009.5
965.857
1210.52
1079.95
1083.56
928.281
1132.82
965.958
1248.88
1078.74
745.458
653.18
1373.35
1057.69
1888.52
1460.66
1193.88
1332.71
1534.28
1120.7
1317.59
1015.64
1353.36
1488.42
1882.51
1270.91
1095.47
1510.18
2517.74
2605.25
4838.01
1369.25
1835.09
1435.31
1819.12
1242.19
1863.41
1551.67
1275.93
1734.98
1483.21
4341.37
2023.6
2069.88
1011.71
1317.55
1003.01
1397.47
1351.73
3217.01
867.992
833.249
1673.81
1052.59
776.817
827.218
1014.78
754.073
805.619
878.31
732.624
729.024
888.923
1580.29
3184.23
1958.31
3022.23
1215.44
1409.51
847.404
727.851
1298.85
1059.93
1755.28
1592.57
1699.26
762.693
849.938
860.804
802.109
619.639
646.172
721.673
3139.41
1393.37
3566.24
866.131
1059.14
773.09
767.118
914.923
947.85
597.268
1053.35
1355.46
1528.41
1708.96
1559.32
4300.76
908.486
2593.35
916.493
1090.36
711.804
763.687
1253.14
2987.56
1448.46
2853.21
1509.43
2896.53
3461.32
1861.49
714.847
1458.59
633.913
3146.14
2140.65
1566.95
1930.96
1345.87
910.819
1451.91
3153.46
2597.05
2015.98
2048.12
1511.89
739.739
1111.44
1003.22
974.789
1274.04
1661.57
937.755
878.373
967.901
906.137
977.308
1730.76
1317.91
1216.18
2257.11
1108.93
1038.64
1378.55
724.461
1083.12
1161.99
1084.22
1198.35
1265.97
951.982
639.98
780.555
884.675
1053.53
1164.58
1034.26
772.765
1174.17
797.937
695.404
728.769
3551.84
694.723
764.262
691.331
736.628
849.26
869.159
3853.22
982.073
952.892
812.314
971.141
910.551
2594.38
637.921
851.726
716.759
707.641
954.541
1417.47
1175.34
991.648
965.465
925.608
1667.69
1144.65
1248.05
1039.7
1005.08
1051.6
1186.31
1124.65
797.048
1859.14
1764.93
2312.89
3185.86
1405.53
322.754
677.007
2951.14
3118.47
421.973
1386.6
315.732
343.082
352.61
862.922
296.335
1360.72
SCALARS SignedDistance double 1
LOOKUP_TABLE default
53.804
54.961
42.9903
39.0199
43.1592
52.6081
58.365
38.7682
58.9964
51.6321
59.5288
57.7488
117.062
50.5339
63.9494
64.8172
53.399
31.0049
36.6038
41.738
65.0507
65.4402
48.6859
73.4814
40.8217
39.9096
53.2777
56.8485
41.9567
52.8975
53.4032
38.4331
53.1082
39.1617
32.9841
35.073
50.0777
42.1646
43.412
52.51
48.8438
57.5598
70.6968
82.7797
64.2242
53.3712
59.9458
62.1494
56.1527
58.116
50.8469
58.5317
54.4694
55.8876
65.6247
52.7778
57.6628
60.8571
45.5905
50.923
46.2331
45.6954
35.1872
39.4956
33.664
37.7818
51.1732
38.1232
42.0917
58.8112
57.667
53.086
77.2815
77.431
76.2612
98.255
58.9843
65.2837
61.59
50.0355
54.9077
57.426
55.9691
51.665
43.5522
44.8607
50.3219
44.754
40.1018
41.8968
36.7632
55.7044
55.6711
62.0053
57.3039
65.9297
55.5857
47.8006
45.4944
59.8264
36.7489
39.4309
79.7668
45.8038
48.5966
37.3697
37.9968
49.885
37.3222
47.5131
54.4691
64.2871
64.6612
48.2041
53.9421
45.7796
50.177
52.026
28.306
32.0489
37.3206
47.5399
39.1578
27.133
44.7391
38.4886
47.9938
58.008
37.6539
33.9784
37.0075
37.5462
56.3096
56.629
56.5485
43.726
49.5191
76.801
55.4724
59.7848
52.5512
55.2724
51.3317
68.1697
58.077
54.7047
55.4693
38.9511
43.2467
43.3646
48.5923
34.1913
53.8026
54.8261
45.5447
59.1879
42.476
44.8944
38.6281
79.6554
63.0833
58.2055
58.2057
64.0133
59.1546
109.55
75.1852
84.5326
66.0271
72.3142
66.7313
55.7616
58.4645
59.2453
55.1885
56.8475
51.3226
91.1829
62.0503
73.9541
53.933
54.9452
51.5306
59.6726
56.9521
58.7436
50.7552
55.0317
54.7444
65.552
59.2543
64.0616
59.915
57.0593
61.5503
61.3822
52.7831
57.5451
56.3281
54.309
56.7641
65.6501
61.7836
60.1611
61.0575
65.3282
56.2202
58.3914
58.8442
54.9677
56.7843
52.4369
62.0444
58.8471
60.9573
62.0126
62.3021
55.2508
51.5402
48.0741
46.9398
46.209
44.7472
44.945
39.3195
51.2397
47.0768
37.0019
43.519
38.6615
46.3219
51.993
36.902
33.6824
36.3167
32.4234
36.4806
37.6244
36.6767
37.064
33.5327
53.4661
45.5476
38.1197
45.5326
49.6913
39.6516
40.0079
61.8912
43.9791
49.5938
39.0833
37.0399
42.6615
38.016
38.2247
36.6295
40.2182
60.4865
63.1843
57.088
57.3008
56.0585
64.1384
46.0694
62.7094
55.2706
36.3201
50.8707
47.9909
57.6514
66.5464
66.9868
76.401
91.7616
63.5302
68.4043
102.144
93.982
87.3425
74.8573
68.6175
60.4624
58.3218
110.853
67.0343
61.3817
60.1938
86.6201
69.8627
68.4402
80.6714
60.0978
56.2822
62.3755
66.6626
63.8924
65.8078
70.5738
50.8921
53.2015
53.0329
53.5563
48.7952
54.5758
56.4253
54.9647
53.6878
51.0428
60.761
55.9984
59.924
49.6078
54.2254
53.0601
58.4967
55.9993
60.1937
48.3938
48.5588
46.8521
46.3402
42.6517
45.0485
41.6031
53.732
51.6972
45.0387
47.7422
47.7331
49.2713
47.5469
41.0802
40.9432
38.4293
40.0878
39.8879
39.0968
37.5907
40.2777
41.2707
43.8595
41.9032
42.6331
57.7996
56.8571
58.8147
59.1922
54.6084
56.8666
56.2383
69.4253
68.8933
54.9433
57.5908
54.1689
61.1946
61.1239
50.6621
49.8908
46.5824
67.9653
56.252
61.5863
50.1671
52.0354
54.8523
56.874
55.8874
54.164
55.9754
59.9193
43.174
47.4213
53.8254
50.3933
47.8896
37.9342
36.9223
41.4806
38.7126
39.9431
36.1839
37.8502
78.3705
53.9663
54.1422
49.1748
52.4893
63.1274
43.4127
46.22
41.0399
39.2399
40.147
43.6019
36.4942
39.0358
38.9662
34.8563
36.4724
36.0283
39.2762
48.5624
43.0186
48.7442
40.7284
53.6532
45.3701
40.2743
53.9568
55.028
58.0093
47.1316
53.8244
40.8034
57.219
59.7162
51.1449
34.9873
43.605
46.4972
46.5839
67.7035
66.5677
50.4266
51.334
57.6163
40.7338
47.4186
39.4814
49.1562
50.4084
53.2009
41.1977
47.6431
43.7264
51.1995
50.9255
50.5827
39.543
37.1261
38.2874
28.5461
27.3582
28.4834
36.778
35.0269
35.2527
47.9024
38.543
37.3019
69.1503
37.6574
42.4294
48.4476
40.4753
70.6225
57.4908
34.7396
38.1031
31.3115
32.0863
27.9016
37.9904
32.988
39.6043
70.6091
69.9468
68.7414
72.8044
40.1156
39.3633
51.1719
41.8439
51.6882
45.9261
50.3357
38.0517
35.4078
46.3518
39.9747
37.0118
36.2496
39.2878
39.2604
36.7907
38.5728
35.5752
38.0264
40.224
40.1661
66.9465
67.3311
66.649
45.6471
57.3299
48.1935
48.1963
52.5674
44.7487
48.4726
41.0926
49.441
38.2246
41.612
40.562
37.4061
49.9607
44.4259
47.9282
75.489
71.5261
72.0545
81.1974
63.3418
58.151
47.3759
67.7672
75.5446
57.6238
49.9892
58.6508
52.1583
50.9064
87.4133
65.8985
47.4657
51.2152
49.1492
48.0438
46.9771
50.1313
51.1829
61.8993
59.9725
73.9376
57.487
55.7813
58.7616
55.4652
58.4636
53.7724
54.3477
51.7591
52.827
57.0047
55.5125
58.3519
61.8227
58.4021
55.5927
39.5592
38.0013
40.3931
37.3928
39.8984
47.8679
44.6181
46.491
44.2141
40.2637
47.9101
41.0483
44.9501
45.448
44.3668
40.6808
42.3142
40.2206
68.8663
41.2177
49.2553
55.0919
54.1728
35.1992
39.539
35.7659
29.6695
31.8609
55.6523
54.0505
54.3773
53.2482
47.1746
44.0513
48.0153
53.1527
72.3321
46.6461
58.5133
82.3651
75.89
43.0462
50.2926
46.7174
41.2992
42.2533
78.9649
69.164
87.1108
66.9801
54.1202
46.4668
51.6603
52.8908
49.4474
45.7539
46.4708
43.9738
38.9366
53.4195
41.4414
46.4394
51.5836
48.2949
37.1303
35.9147
37.223
36.8935
41.5083
42.3232
40.1449
37.5157
56.1193
61.2455
56.3927
57.8833
71.2511
62.9822
59.7573
60.6952
65.2578
77.3341
56.2515
61.9455
60.133
57.6766
57.6447
83.1588
64.0599
72.2916
