# vtk DataFile Version 4.2
vtk output
ASCII
DATASET POLYDATA
POINTS 642 double
-166.239 307.938 25.6374
164.992 315.532 23.1973
-169.114 -265.004 47.4293
179.14 -272.483 48.0235
1.22595 -184.756 368.728
1.76217 165.066 325.581
2.19425 -120.308 -188.876
1.39483 223.726 -245.894
252.003 46.864 -129.747
246.364 15.3 230.526
-234.048 46.1491 -127.408
-231.418 17.6968 225.964
-216.525 180.435 102.747
-141.31 105.101 313.545
-69.1842 231.242 170.027
74.2918 234.859 174.906
1.45242 365.159 15.8869
109.374 335.727 -129.75
-101.703 330.542 -126.903
-160.023 136.749 -230.904
-261.941 203.403 -53.8598
-250.08 29.1827 47.8148
148.427 108.252 318.966
206.108 171.86 108.795
-162.401 -100.527 336.84
3.4611 15.7926 411.349
-232.224 -145.019 -37.7201
-228.115 -152.746 187.471
2.57743 45.6648 -293.971
-142.782 -39.0703 -213.391
260.418 209.787 -59.6167
166.497 139.224 -234.501
244.875 -157.159 190.64
172.544 -101.851 341.702
117.116 -283.711 256.877
-113.173 -281.007 255.306
0.601919 -308.403 47.4787
-103.003 -251.548 -103.371
110.061 -254.484 -105.611
149.635 -41.3344 -216.534
242.629 -154.294 -40.0167
265.032 17.227 55.408
-205.81 250.295 64.9686
-163.267 204.509 131.135
-130.405 292.429 81.6971
-196.1 62.6235 277.457
-181.535 128.179 236.754
-219.972 85.1153 195.386
-38.862 199.31 270.296
-110.493 171.034 268.282
-72.0111 140.671 330.166
-48.6437 323.019 80.6423
-81.3615 355.261 18.7112
44.3302 200.889 270.632
3.26126 240.302 183.546
89.7352 359.259 18.7864
55.0746 324.093 80.0734
129.583 297.577 79.6837
-58.0985 380.497 -51.7506
-137.956 337.033 -48.5204
145.577 348.142 -51.4285
62.9417 382.542 -52.1589
-54.171 286.708 -197.1
1.50598 345.202 -137.086
58.3692 288.24 -198.499
-196.094 273.847 -95.2885
-224.435 269.32 -14.2776
-87.3946 184.046 -250.937
-138.118 241.631 -185.679
-253.463 148.345 -85.9236
-223.899 184.786 -141.002
-210.395 88.6907 -183.63
-256.772 204.324 24.9966
-238.892 62.4019 -38.648
-269.703 152.979 -17.2292
-231.467 147.82 65.6826
-240.572 15.4309 150.382
151.937 208.419 139.531
207.397 254.732 62.2504
78.3704 141.973 333.25
116.58 173.876 272.331
234.267 83.3347 198.636
188.842 129.158 244.197
206.286 63.8765 282.74
-75.0416 66.6821 374.435
2.65965 98.021 377.762
-206.265 -44.7707 286.814
-157.441 17.2686 337.633
1.16512 -69.5138 400.899
-80.1474 -35.6529 386.858
-92.8169 -150.374 370.59
-246.286 -61.6386 108.431
-233.243 -76.9509 215.089
-223.519 -60.1771 -80.9445
-249.357 -72.524 4.5331
-202.952 -202.038 122.069
-239.969 -153.713 42.335
-212.284 -213.764 -0.118862
-164.822 43.0243 -238.072
-202.023 1.53157 -175.12
2.04546 125.947 -289.252
-88.1945 93.2079 -282.24
-81.0083 -87.3859 -215.405
-84.6714 -5.76979 -268.229
1.38861 -35.8386 -265.136
143.739 246.133 -189.996
91.183 186.04 -253.021
225.985 272.91 -17.3309
200.365 280.87 -98.5047
223.607 87.5852 -188.76
226.14 186.976 -146.321
258.842 133.518 -92.1063
217.929 -210.382 123.029
207.013 -231.501 221.786
152.476 -281.481 173.865
218.146 -45.6085 292.17
232.391 -137.788 270.466
251.701 -80.3838 217.014
66.8346 -247.509 333.464
155.915 -205.108 322.935
97.5115 -153.943 371.834
63.5562 -313.055 180.41
102.239 -306.477 46.6087
-63.2232 -245.813 331.365
1.14424 -292.314 263.082
-95.4612 -303.975 47.0305
-60.4382 -311.416 179.975
-144.41 -277.451 171.577
66.8166 -302.3 -34.4499
152.475 -279.627 -34.776
-144.066 -273.73 -32.7599
-62.782 -302.169 -34.2111
62.3224 -204.472 -153.65
0.838845 -257.135 -108.384
-57.5105 -203.894 -153.929
193.805 -216.003 -80.2138
227.744 -220.883 -2.12895
85.2454 -89.8189 -216.913
134.235 -178.045 -150.354
236.498 -56.1853 -81.5411
204.611 -120.845 -115.246
213.268 0.867612 -179.787
251.3 -161.168 42.6008
252 51.8159 -50.5589
264.067 -77.5327 5.077
259.329 -64.2681 111.383
259.183 17.4685 157.496
84.0364 -32.7214 393.553
165.209 17.5183 344.297
80.4716 66.7933 379.608
-193.382 -222.622 222.587
-150.203 -200.741 317.827
-217.588 -138.074 264.773
-126.631 -173.742 -146.975
-181.981 -210.223 -75.6959
-197.949 -114.022 -112.3
173.107 42.9626 -242.146
87.79 -6.18446 -270.272
90.2805 93.2706 -285.528
247.691 107.478 75.6279
270.334 148.052 -20.4033
253.858 211.369 21.9127
-189.539 280.341 46.6227
-170.896 274.205 75.1314
-148.389 302.39 57.2873
-193.994 193.354 118.876
-188.321 242.467 89.9473
-217.626 217.566 81.2637
-105.034 277.943 103.465
-152.395 264.947 95.8062
-117.815 217.731 148.659
-216.16 40.7796 253.181
-212.366 73.7037 237.197
-228.013 51.5026 213.208
-164.777 117.387 277.213
-190.11 97.2571 259.654
-171.026 84.273 297.714
-207.269 138.104 146.44
-203.057 108.614 216.682
-191.133 147.634 178.39
-19.0283 184.585 298.83
-55.8354 173.232 302.269
-33.7091 154.218 330.311
-91.9398 194.555 240.896
-75.8178 186.878 271.282
-56.1275 208.929 241.303
-107.878 124.227 324.493
-93.7375 158.289 300.167
-126.686 141.421 293.243
-167.851 164.452 199.185
-149.038 151.569 254.472
-134.164 179.048 223.444
-105.539 324.142 52.7985
-121.843 333.483 21.44
-62.0194 290.743 110.254
-85.741 309.979 80.0316
-46.4922 365.357 17.834
-64.8419 342.437 50.6924
-29.1379 348.495 49.9703
23.1697 185.093 299.319
2.01158 203.223 273.616
41.2427 239.754 182.733
23.067 217.481 244.644
62.5656 212.531 240.879
-17.4916 216.242 245.029
-32.8359 238.427 180.269
125.7 342.13 20.1057
109.527 331.356 51.6566
147.649 309.175 54.9813
33.1389 347.673 48.9821
72.8384 345.111 50.6479
52.021 366.709 17.216
104.33 278.931 107.574
90.0981 315.321 79.2973
67.1333 291.446 112.688
-21.5003 294.297 120.837
25.1611 293.614 121.731
0.763802 324.093 83.1078
-109.505 353.097 -16.1052
-154.501 324.856 -11.8285
-30.0987 378.782 -17.3794
-70.2963 371.996 -17.6369
-121.464 339.355 -86.8565
-97.1923 365.687 -52.5034
-81.7395 361.873 -88.8228
155.035 334.607 -15.932
118.008 360.321 -17.124
88.2158 365.648 -90.4217
106.375 370.961 -53.1711
130.292 346.836 -88.9508
77.4735 375.341 -17.6191
34.184 379.907 -17.6345
-26.7809 257.635 -225.197
1.32532 290.122 -202.251
29.839 258.322 -225.967
-55.7955 344.12 -136.487
-29.1293 319.856 -169.759
-79.1719 312.431 -163.347
85.515 315.696 -165.219
32.3692 319.968 -169.706
60.5113 345.998 -137.095
1.82546 382.268 -52.3027
34.1338 371.483 -95.113
-30.3589 370.191 -94.5846
-188.025 303.852 -30.1296
-198.157 291.116 4.76857
-149.33 304.093 -111.341
-169.72 307.867 -71.6528
-245.199 239.668 -33.3865
-213.879 274.172 -52.7378
-231.372 240.89 -75.2189
-44.5846 205.672 -250.449
-70.3668 239.531 -226.671
-149.417 189.547 -210.006
-112.349 214.976 -221.363
-126.065 160.644 -244.826
-96.4776 267.619 -194.64
-120.168 288.089 -158.231
-240.022 92.3925 -108.325
-233.619 115.951 -132.839
-226.974 65.8081 -154.986
-247.257 195.428 -100.628
-244.408 165.248 -113.18
-263.765 174.377 -70.7193
-188.077 112.835 -210.191
-214.39 139.262 -160.563
-189.28 160.17 -186.234
-171.199 261.853 -141.732
-185.396 213.62 -165.794
-214.086 230.025 -121.629
-217.803 262.909 25.7161
-265.249 207.08 -12.4579
-243.456 237.219 5.11764
-232.859 229.303 46.3907
-241.855 198.39 63.3114
-238.939 55.1436 -96.0906
-250.156 112.548 -64.4457
-259 116.698 -2.53197
-263.855 123.896 -22.2344
-248.562 54.4859 13.7714
-268.21 154.988 -42.147
-275.152 173.892 -32.3796
-232.644 52.0551 180.155
-237.749 17.8718 195.386
-230.084 169.02 85.2994
-223.032 106.101 133.073
-249.19 14.9334 93.6605
-236.069 61.7478 120.878
-245.326 84.9163 48.1099
-270.835 176.532 0.493035
-262.396 156.329 10.1984
-256.139 180.188 38.8237
171.768 278.79 73.3279
190.977 284.492 46.0891
112.717 223.642 158.942
149.533 268.888 96.7659
216.567 228.189 71.6392
187.597 250.503 84.5203
184.033 191.551 121.927
38.7043 154.428 331.392
61.8935 174.39 303.946
133.637 144.478 298.048
100.451 160.565 303.676
114.434 126.682 329.063
82.2018 189.362 273.094
96.5292 198.907 243.01
242.883 50.4495 215.267
223.694 74.4135 241.618
228.844 39.0861 258.018
200.279 138.55 195.801
213.007 107.731 222.338
219.964 118.552 173.031
179.352 87.3278 303.295
199.205 99.6993 265.352
172.616 120.57 282.885
135.973 182.109 232.157
155.264 153.953 260.89
171.461 161.598 214.714
-34.7242 122.083 356.974
2.03638 134.7 353.349
-111.383 88.8269 346.043
-75.2781 105.904 354.576
3.21199 56.6619 397.805
-35.5981 82.1593 380.527
-34.9744 41.2355 397.474
-218.952 -13.8245 258.083
-203.444 16.2341 284.264
-160.74 -40.8184 338.227
-184.032 -13.7609 312.94
-189.022 -72.8731 314.112
-179.387 42.4552 309.442
-152.235 63.7757 328.394
-0.925373 -132.035 377.475
-48.1983 -115.829 381.571
-52.5562 -169.831 375.636
-35.1211 -6.14699 407.566
-39.2993 -51.7738 398.855
3.33273 -20.7088 414.928
-130.222 -127.21 356.806
-89.9586 -95.0919 376.684
-125.52 -72.0019 364.361
-118.583 43.177 360.266
-122.934 -10.0517 365.833
-76.944 18.3305 388.225
-238.391 -22.2537 184.154
-234.269 -29.58 219.543
-253.418 -18.9155 78.4022
-248.048 -19.8399 127.546
-230.77 -120.684 203.635
-235.735 -70.1701 170.813
-233.117 -108.905 153.692
-226.643 6.64127 -116.94
-230.041 -5.35609 -64.7403
-243.34 -111.377 -15.7585
-241.804 -75.3766 -29.2981
-231.046 -110.908 -52.9106
-246.511 -22.9091 -5.2754
-252.605 -23.0641 29.5789
-188.08 -239.992 79.8747
-212.518 -214.553 45.7591
-193.93 -241.931 22.0463
-220.886 -155.653 114.962
-224.121 -182.773 75.4604
-219.393 -181.1 161.815
-224.503 -180.292 -19.8952
-229.087 -183.363 22.9247
-240.759 -150.999 3.40579
-250.534 -66.7591 46.6954
-247.883 -115.16 20.8359
-241.862 -108.902 71.6114
-209.843 43.5482 -183.53
-221.455 22.4749 -152.273
-165.641 89.2347 -238.77
-189.639 66.4059 -214.55
-176.337 -16.0444 -196.888
-185.317 21.4845 -209.474
-157.647 0.725363 -228.285
1.50093 172.98 -269.498
-45.8275 156.488 -274.508
-43.9083 69.1171 -293.488
-45.1025 109.36 -289.405
2.79093 84.513 -298.66
-90.3919 136.697 -272.096
-127.339 116.918 -261.751
-49.2047 -103.343 -208.006
-41.97 -57.1981 -248.337
1.84135 -66.5106 -242.811
-117.172 -24.7659 -243.43
-82.1003 -42.1462 -248.449
-109.95 -64.501 -218.666
1.65989 2.29451 -282.582
-43.7365 -21.6843 -270.159
-44.2582 17.7805 -284.547
-130.682 67.5493 -264.875
-88.2604 42.589 -281.144
-127.192 18.413 -258.548
74.6917 241.239 -228.512
[...]
POINT_DATA 642
SCALARS Mean_Curvature double 1
LOOKUP_TABLE default
0.00961394
0.00760516
0.00855191
0.00905178
0.00176485
0.0112366
-0.0128034
0.00519034
0.012797
0.00929841
0.0124481
0.0112643
0.0100884
0.00774595
-0.00212696
0.000586956
0.00126437
0.00983744
0.00854938
0.00793788
0.0111066
0.00707781
0.00817891
-0.00184007
0.0049518
0.0115849
0.0102621
0.00678386
0.00517019
0.00550498
0.011872
0.00730886
0.00716638
0.00685021
0.00789102
0.0105572
-5.75448e-05
0.00928145
0.00961779
0.00574662
0.00628131
0.00235252
0.0092037
-0.00415244
0.0092916
0.00799977
0.00671475
0.00548126
0.00702219
0.00700516
0.00770948
0.0067241
0.00934912
0.00629709
-0.00161148
0.010538
0.00527349
0.00548629
0.016937
0.00715157
0.0141241
0.0149828
0.00677025
0.0026225
0.0066416
0.00787247
0.0130217
0.00554214
0.00410088
0.00375128
0.0105013
0.00655089
0.0128093
-0.00678924
0.0132326
-0.0116
4.63149e-05
-0.00352717
0.011397
0.00800652
0.00733796
0.00757127
0.00686114
0.00763655
0.00660917
0.00820808
0.0050216
0.00737475
0.00601534
0.00396003
0.00900326
0.00237867
0.00448277
0.00104057
0.00665099
-0.00720828
0.00889692
0.0099839
0.0102405
0.00736545
0.00592088
0.00864738
0.0053664
0.00928689
0.00648013
0.00473432
0.00509176
0.0102511
0.00739023
0.00814025
0.00623471
0.00112167
-0.00326585
0.0117293
0.00579375
0.00259264
0.0114827
0.0057535
0.00975534
0.00904786
0.00833985
0.00903906
0.00689492
0.00965001
-0.00287274
0.00711584
0.00875797
0.00840535
0.00694842
0.00978927
0.0096795
0.0093987
0.00430481
0.00018697
0.00686491
0.00886929
0.0110381
0.00504266
0.00746192
-0.000321681
0.00653871
0.00761101
0.00373495
-0.00656288
0.00567232
-0.000828041
0.00613077
0.00552764
0.00689214
0.00699891
0.00828055
0.00828591
0.0113544
0.00610822
0.00837242
0.00806561
0.00981363
0.00845397
0.00813793
-0.000273704
0.00959609
0.0128472
0.00929172
0.0101311
0.00879599
0.00428636
0.00780432
0.00892538
0.000140986
0.0061038
-0.00615232
0.0079373
0.00764312
0.00931673
0.00758874
0.00770806
0.00785039
-0.00313239
0.00665526
0.00496201
0.00723262
0.00746633
0.00659394
0.00378609
0.00751588
0.00566975
0.00778382
0.00798671
0.0075776
0.00584425
0.0071602
0.00489619
0.00543848
0.00518827
0.00180832
0.00296086
0.0110684
0.00899363
0.00708767
0.00690935
0.00845041
0.00153235
0.00673313
0.00680367
0.00688102
0.000803976
0.00790075
0.00778218
0.00803636
0.00334787
0.0105397
0.00944993
-0.000900291
0.00500633
0.00313032
0.00620025
0.00450574
0.00205094
0.0074008
0.00634244
0.0101175
0.0109829
0.00760353
0.015621
0.010157
0.00515063
0.0103555
0.00935641
0.0161482
0.00921082
0.0108714
0.00980496
0.00692069
0.00631237
0.00685032
0.0102409
0.00599297
0.0079543
0.00816504
0.00414319
0.00894134
0.00845534
0.00786289
0.00785933
0.0113212
0.00925034
0.00471572
0.0058781
0.0101019
0.00768321
0.00579243
0.00366365
0.00722423
0.00339133
0.00503107
0.00721012
0.00662508
0.00347314
0.00290871
0.00527207
0.00943034
0.0128721
0.00969345
0.0179933
0.00794789
0.00129773
0.00281948
0.00657762
0.00567996
0.00712661
0.00828352
0.0153048
0.00788519
0.00732124
0.0179774
0.00492279
-0.00125129
0.00473225
0.0137005
-0.00175309
0.00641025
0.0288512
0.00420581
0.00911279
0.0129402
0.000745661
0.00394626
0.000166295
-0.0013769
0.0237549
0.00281076
0.0187303
0.0101776
0.00949186
-0.00252145
0.00578159
0.00890853
0.00671295
-0.00134974
0.00552065
0.00699089
0.00833158
0.00847477
0.00826888
0.00747448
0.00484344
0.00769291
0.00696929
0.00704804
0.00453146
0.00564003
0.00307909
0.00821934
0.00843165
0.00844305
0.00487685
0.0078342
0.00440222
0.00690632
0.00916922
0.00751648
0.00719323
0.00833712
0.0069682
0.00774256
0.00247774
0.00792483
0.00375981
0.0038593
0.00887272
0.00811107
0.00796912
-0.00300473
0.00153573
0.0110937
0.0116988
0.00475116
0.0150225
0.00639313
0.00382751
0.00642303
0.00699173
0.00577621
0.00769893
0.00138288
0.00690477
0.00647642
0.00576844
0.001943
-0.00156369
0.000909943
0.00415667
-0.00440946
0.00711878
0.00435483
0.00442413
0.0019589
0.00595678
0.00540582
0.00766538
0.00914475
-0.00900371
0.0120085
0.0133064
0.00738086
0.0068546
0.0114481
0.00329937
0.00830282
0.0011181
0.00935007
0.00983214
0.00906752
0.008631
0.00639493
0.00876879
0.00878479
0.00237608
0.00629942
0.00843364
0.0070716
0.0109636
0.00870994
0.00993318
0.000144901
0.00693808
0.00308226
0.00849433
0.0068995
0.0076807
0.00573052
0.00825036
0.00662967
0.00920561
0.00910125
0.00975013
0.00670892
0.00348693
0.00523726
0.00623401
0.00664914
0.00613478
0.00431778
0.00838749
0.00701609
0.0101864
0.00763212
0.00762146
0.00786287
0.00593963
0.0120187
0.00569333
0.0108303
0.00295598
0.00306131
0.00704037
0.0107304
0.00612472
0.0104811
0.00566087
0.00861965
0.006023
0.00495786
0.00206602
0.00340103
0.0144241
0.00779537
0.00829031
0.0119804
0.0130915
0.00734358
0.00585447
0.00551846
0.0072498
0.007808
0.00832434
0.00693001
0.00444126
0.0111429
0.0132672
0.0110714
0.0124002
0.00974213
0.00902925
0.00954324
0.00993392
0.00567969
0.010859
0.00854245
0.00830167
0.00813422
0.00799708
0.00262272
0.0077833
0.0106638
0.00541058
0.00457155
-0.000308366
-0.00365104
0.0124443
-0.00217688
0.00679312
0.0111347
0.00919679
0.0100827
0.00657557
0.00711628
0.002437
0.00243735
-0.00221322
0.00151617
0.00594068
0.00684434
0.00669511
0.0109551
0.0156168
0.0166655
-0.00273477
0.0106238
0.00985866
0.00693456
0.00868088
0.00955086
0.0106825
0.00938191
0.00985325
0.0101127
0.00968185
0.0101736
0.00946641
0.0109792
0.0060805
0.0051481
-0.00280002
0.00546896
0.0067001
0.00755062
0.00875543
0.00897017
0.00795721
0.0089029
0.00244128
0.00764466
0.00756311
0.00958052
0.00879675
0.00867108
0.00931396
0.0126412
0.00956565
0.0106132
0.000818581
0.00644468
-0.0072858
0.0110093
0.00777615
0.00826304
0.00895572
0.00826644
0.00765189
0.0071234
0.00656086
0.00122831
0.00468407
0.00654431
0.00614364
-0.00775361
0.00893241
0.00714361
0.0103547
0.00865594
0.00232823
0.0123265
0.0119291
-0.00917086
0.0101555
-0.00194912
0.00435493
0.000879266
0.00310043
0.00246199
0.0116577
0.00361867
0.0103032
0.00187756
0.000998395
0.00164946
-1.90447e-05
0.013393
0.0162878
0.00190324
0.00144189
-0.00210279
0.00288917
0.00281686
0.00747086
0.0139727
0.0067677
0.00731156
0.00643692
0.00676195
0.00402194
0.00623623
0.0086174
0.00728082
0.007281
0.00757875
0.00750809
0.00670746
0.00896468
0.00500589
0.0106077
0.00768224
0.00808476
0.00966642
0.00980421
0.00979655
0.0103046
0.00923784
0.00888126
0.00873434
0.012434
0.0085313
0.00593937
0.0061836
0.00909339
0.0102469
0.0124907
0.0091564
0.00872703
0.00706304
0.00939775
-0.00634246
0.00975015
0.00724903
0.00951902
0.00934586
0.00868319
0.00798885
-0.00725016
0.00799051
0.00366063
0.00845662
0.00794144
0.00823054
0.00683926
0.00940783
0.00852655
0.0082813
0.0106839
0.0087091
0.00686049
0.00672362
0.00796013
0.00656348
0.00832159
0.00616426
0.00902897
0.0076764
0.00856522
0.0117753
0.00911686
0.00772623
0.00925316
0.00827833
0.00636098
0.00122504
0.00214817
-0.00230598
0.0068817
0.00977562
0.0133949
0.000324762
-0.00818357
0.00995888
0.00713335
0.0122419
0.0116028
0.0144161
0.0132534
0.0129831
0.00478317
SCALARS CoVolArea double 1
LOOKUP_TABLE default
1465.26
1518.28
1756.3
1822.82
2150.41
1250.21
3118.34
2051.67
1078.65
1402.29
1188.93
1292.79
1647
1682.7
3567.42
2989.81
2043.28
2301.86
2293.21
2191.54
1710.31
2363.85
1743.78
2771.35
2306.53
1706.21
1560.2
1892.66
2117.04
2572.28
1666.75
2321.89
1980.63
2469.19
2533.94
2377.94
3430.78
1832.45
1899.8
2711.21
1699.15
2562.97
1348.84
3101.7
1437.98
1532.97
1813.79
1955.28
1354.81
1608.14
1642.67
1826.6
1616.85
1429.02
2949.8
1550.86
1937.32
1511.2
1967.24
1981.22
1821.25
2071.38
2288.17
2757.18
2367.1
2376.96
1586.56
2327.12
2691.27
1687.84
2196.73
1975.35
1307.24
3646.11
779.9
3071.9
2145.87
3542.45
1176.12
1681.77
1558.52
1565.52
1676.41
1685.42
2077.29
1786.97
1993.22
2201.61
2843.95
2652.21
2207.31
2874.78
1785.51
2465.77
1735.51
2708.47
2084.68
1620.13
1833.86
1677.39
2289.92
2136.97
2119.34
1932.49
1854.33
2690.49
2392.14
1806.24
2411.95
1924.86
2361.35
1884.69
2784.51
2222.01
2349.53
2169.5
2046.97
1742.04
2512.45
2558.98
2332.97
2696.17
2503.45
2483.03
3024.52
2389.15
2605.71
2304.32
2301.6
1880.72
1792.92
2187
2047.19
2457.19
1906.49
1947.54
1682.57
2142.81
2280.45
2825.43
2399.05
1793.66
2345.47
2963.23
1706.82
3135.99
1830.55
2589.42
2265.65
2083.2
2063.9
2449
1817.01
2290.85
1884.82
2287.75
1932.97
2028.63
2173.59
3091.51
1570.26
1248.68
1477.94
1267.48
1572.06
2190.25
1694.86
1450.59
2698.63
2242.75
4040.75
1549.56
1437.48
1266.97
1640.14
1470.1
1507.96
2250.64
1844.56
2168.92
1428.53
1524.73
1557.42
2682.79
1391.71
2045.88
1577.83
1490.17
1641.09
2524.04
1938.05
2943.15
1666.87
1849.99
2628.32
1613.05
1574.71
1508.27
1946.33
1479.46
1360.27
2859.38
1976.1
1929.25
1961.77
2956.37
1698.75
1526.06
1576.5
2038.31
1491.25
1675.4
2528.07
1585.62
2539.08
2846.74
2958.28
2401.6
1810
1887.77
1956.25
1553
2055.65
1720.12
2145.44
1835.66
1675.46
2252.73
1736.77
2000.96
1623.61
2010.07
2300.15
2440.18
2336.08
2431.19
2424.54
2170.98
2231.94
2488.55
2522.9
2512.82
2845.18
2785.05
1894.6
1616.01
2540.58
2188.74
1692.25
1941.86
2179.06
2441.99
2338.38
2625.92
2379.19
2133.17
2332.03
2579.75
1842.04
2085.21
1699.34
1874.01
1657.72
1196.22
1987.91
2207.24
2542.3
2845.63
2859.03
2509.91
1515.54
1431.89
1524.83
1454.19
1269.98
2392.6
2218.52
1743.54
1766.73
2667.56
1153.43
1028.03
1996.47
1473.76
1733.5
2775.68
2520.97
3503
3580.96
1005.35
1875.21
1293.57
1297.23
1553.42
3605.9
2387.5
1673.05
1977.21
3028.89
1621.5
1587.43
1632.21
1500.81
1601.79
1420.89
2369.67
1415.35
1566.5
1676.37
2498.63
1600.96
2407.24
1622.17
1521.69
1634.82
2890.35
1819.75
2883.4
1759.31
1621.3
1922.67
1788.32
1760.29
1857.83
1966.62
1897.04
1862.59
2454.46
2080.46
2052.14
1756
1874.22
3024.48
2770.27
2358.84
2061.64
2498.55
1836.53
2177.12
2588.5
2649.57
2391.92
2762.18
2502.88
2047.27
1723.32
2221.85
2285.47
1641.3
2452.74
2995.13
2003.84
3537.85
1469.9
2313.3
1710
3144.21
2270.53
2513.68
2081.28
1770.57
2921.54
2174.61
2011.48
1552.63
1616.27
1501.28
2373.85
1844.25
3147.83
1588.83
1432.16
1937.79
1682.36
2045.18
1566.43
1735.82
2560.29
2424.17
2162.02
2110.06
1924.73
2113.09
2079.61
2879.57
2096.19
2763.94
1804.34
1810.15
2096.89
2003.31
1849.83
2167.13
2250.23
2326.78
2121.35
2404.16
2480.4
2549.77
2367.62
2224.53
2405.26
2648.83
1811.61
1968.3
2059.48
2008
1702.88
2104.51
2496.32
1560.93
2136.34
1528.36
2623.27
2340.07
2076.12
1550.98
2096.85
1939.65
2914.73
2578.39
2915.82
2669.69
2654.79
2660.09
1769.02
2036.3
2140.85
2052.27
1936.14
2506.43
2009.62
1964.07
1823.1
2232.66
1928.58
2122.99
1592.39
1584.88
1656.06
2424.78
2194.56
2461.95
2657.32
2364.73
2402.82
2355.87
2189.4
2392.13
2526.89
2727.1
2935.11
2953.14
2309.39
2296.07
2441.62
2836.3
3126.52
3957.53
2424.51
2802.01
2670.49
2717.18
2349.38
2740.14
2738.65
2293.24
2877.65
2569.85
3853
2923.38
2669.83
1998.19
2336.68
2185.22
2773.92
2734.59
3326.88
1900.31
1863.03
2550.03
1964.5
1822.21
1871.24
2093.69
1754.54
1837.44
1995.1
1797.94
1753.72
1867.96
2477.99
2812.31
2365.74
2742.38
2182.59
2156.79
1748.3
1675.55
2088.8
2074.7
2852.62
2689.37
2770.17
1876.38
1910.95
1995.83
1875.02
1545.53
1750.25
1756.43
2871.18
2121.96
3517.35
2187.68
2182.13
1804.87
1870.88
1935.27
2112.94
1528.03
1894.47
2348.76
2113.18
2163.77
2390.33
3643.53
2104.25
2988.12
2018.45
2122.54
1703.21
1627.15
2279.9
3177.33
1798.8
3126.61
2194.93
2920.18
3126.01
2437.12
1638.44
1979.87
1467.09
3095.34
2422.06
2201.44
2474.13
2220.93
2038.74
2407.81
3457.08
3049.22
2885.65
2785.93
2520.46
1927.32
1989.2
2005.96
1886.2
2150.16
2608.93
1799.65
1925.64
1853.71
1815.25
1994.57
2806.83
2419.96
2399.51
2531.84
2307.61
1966.3
2038
1684.5
2218.78
2240.5
2167.02
2355.99
2509.75
1828.45
1461.8
1515.41
1872.83
2142.17
2624.8
2442.32
2164.08
2051.05
1841.52
1781
2188.27
3392.91
1731.97
1777.64
1670.73
1753.13
1906.66
1805.64
3484.05
2196.49
1912.5
1757.12
2082.94
2033.51
2955.8
1641.98
1844.81
1660.37
1747.25
2071.17
2113.56
2151.72
1895.87
1883.98
1908.53
2443.27
2233.17
2191.14
2064.31
2074.46
2258.86
2380.63
2374.1
1511.17
2896.76
2509.57
2617.43
3271.75
1790.6
1365.6
1457.33
2377.08
2964.95
1543.04
1949.5
1163.41
1478.23
1526.11
2141.43
1318.84
2114.12
SCALARS SignedDistance double 1
LOOKUP_TABLE default
134.699
133.25
112.779
104.759
98.3845
137.319
150.88
101.475
142.513
136.627
153.002
147.695
187.581
135.325
166.981
166.201
134.296
90.3774
97.3478
110.038
133.149
162.535
129.824
165.448
109.569
105.709
139.739
145.406
108.609
136.359
130.479
103.851
134.372
104.176
84.9767
90.3967
114.041
112.07
110.675
132.753
130.533
149.887
153.903
177.321
157.492
139.71
156.24
161.24
150.367
151.645
134.905
152.807
136.213
147.939
168.664
132.878
150.952
155.529
108.693
114.47
111.276
108.003
95.7359
95.9884
93.9723
104.049
125.538
101.272
105.488
148.889
130.183
128.853
155.821
168.902
164.711
178.64
155.957
162.777
150.591
131.82
146.662
150.271
148.533
133.068
118.572
120.297
131.547
121.217
100.697
106.927
97.7143
146.308
146.69
156.667
150.587
145.034
142.081
123.494
119.094
142.827
99.0408
101.953
150.632
119.493
125.892
100.039
99.0064
121.826
99.8486
116.433
121.105
146.606
138.33
110.712
117.03
119.727
117.236
136.546
76.5108
84.8871
96.5028
114.058
102.986
76.8334
94.0758
103.57
114.078
120.99
103.157
97.6124
103.879
102.938
132.612
124.365
132.523
113.971
114.445
149.304
130.63
145.49
140.31
134.626
133.157
158.698
148.728
141.107
147.066
101.899
116.178
115.269
118.171
92.002
129.901
132.058
120.991
148.321
112.864
117.346
100.07
160.113
156.292
150.786
143.501
154.44
147.226
185.168
163.297
166.706
164.728
162.402
167.907
143.657
150.296
154.36
144.93
147.211
136.825
173.287
159.37
172.797
143.953
143.602
135.862
156.989
151.132
155.999
134.739
143.546
143.536
169.844
153.941
162.444
150.026
137.574
160.796
157.092
133.245
146.327
142.919
143.126
149.443
168.505
154.554
153.099
154.688
168.306
135.436
146.857
145.994
142.969
144.379
132.749
160.644
153.693
158.891
159.39
158.029
147.592
125.431
122.609
120.614
121.294
101.949
111.954
94.7243
121.365
120.494
89.2571
106.397
94.3228
118.591
124.662
97.3658
93.7921
96.5681
90.8112
94.0615
96.8045
93.0036
94.9456
90.7909
114.042
97.5059
91.9679
115.767
128.326
101.364
105.126
124.173
110.398
112.206
101.155
99.3164
110.048
103.97
104.101
100.119
102.12
153.447
146.493
140.962
131.051
141.564
145.646
118.487
134.535
123.304
102.832
113.4
110.883
138.471
144.795
137.338
152.143
170.46
158.327
160.628
176.741
171.199
167.895
156.431
157.429
159.214
154.041
185.592
167.404
157.997
159.634
172.656
163.682
167.714
170.014
151.6
141.513
162.906
160.37
157.928
157.311
165.173
134.735
140.911
138.85
139.624
130.226
147.208
151.949
143.122
142.387
134.932
156.514
149.198
157.692
130.885
141.153
139.521
153.603
147.681
155.592
127.614
128.746
126.416
126.121
112.645
119.104
111.79
136.252
133.794
118.915
124.503
122.139
130.247
127.975
104.361
104.929
98.8798
104.97
103.052
97.703
102.615
102.972
109.339
118.957
112.899
112.091
152.004
147.593
154.027
153.305
144.177
148.972
146.545
160.173
159.425
144.891
149.827
144.965
156.751
155.407
125.171
127.5
116.894
145.242
139.422
148.017
129.468
131.399
139.582
149.977
147.213
145.425
134.972
148.346
112.984
121.948
137.497
129.919
127.328
101.113
99.397
106.054
100.453
102.143
98.8411
102.435
153.98
133.086
135.739
127.789
130.356
142.26
115.587
121.556
111.723
107.389
107.989
117.213
97.2506
100.463
97.9815
96.2269
99.9719
99.0527
104.262
125.492
113.171
111.54
109.417
121.415
104.309
97.0263
130.491
131.134
142.692
114.354
122.089
109.169
136.107
132.863
122.275
98.396
106.007
108.987
116.332
131.121
123.994
127.051
125.545
137.69
101.129
113.258
91.844
127.159
129.171
136.527
107.071
118.413
114.075
134.884
130.947
129.662
90.6231
85.9427
98.7719
79.4226
76.9832
75.9932
98.1157
90.188
95.3701
110.461
96.9692
91.6185
121.304
101.688
100.203
111.318
106.901
123.637
130.991
86.3957
85.9411
84.4158
82.2882
78.4916
86.8522
83.9469
106.428
123.563
129.793
126.295
123.118
106.201
102.395
112.97
100.691
109.625
105.575
118.301
97.8782
98.6079
110.054
104.949
102.003
98.7811
105.882
106.418
101.48
104.794
100.403
106.32
103.97
106.189
152.405
142.538
148.991
116.364
130.486
122.28
120.847
126.16
115.794
111.164
109.645
115.754
102.42
106.627
109.035
103.749
124.672
111.876
123.669
152.699
154.118
148.622
155.638
140.147
131.627
119.862
152.688
153.812
137.157
133.729
143.5
137.612
131.619
154.021
147.36
121.375
135.066
129.027
117.879
127.662
127.968
129.55
135.486
151.836
154.58
147.808
145.432
150.787
142.442
141.572
142.007
143.506
136.02
139.363
147.929
145.03
146.338
143.807
146.33
141.449
101.839
103.485
101.845
98.6214
102.233
126.083
121.527
123.318
117.228
109.304
126.827
109.87
118.167
122.84
121.352
108.085
114.136
107.634
136.91
103.7
116.224
132.449
134.806
85.9151
104.469
92.5852
81.666
85.727
140.076
140.712
141.399
127.965
117.461
102.424
110.95
124.899
153.33
121.966
131.328
155.017
152.769
111.836
128.813
121.04
111.605
114.3
164.265
154.782
163.425
154.404
142.077
125.121
132.428
138.263
125.394
122.241
122.454
114.096
104.802
132.565
111.131
120.736
128.471
124.901
99.0637
98.5903
97.5563
97.3806
104.634
113.259
106.433
103.462
149.424
153.088
149.819
154.317
162.818
154.314
143.895
152.034
160.711
166.216
137.184
158.168
149.449
136.663
140.731
168.865
154.067
160.269
