# vtk DataFile Version 4.2
vtk output
ASCII
DATASET POLYDATA
POINTS 642 double
-164.343 305.005 24.4947
163.015 312.725 21.9878
-167.065 -262.587 47.2158
177.355 -270.127 47.8091
1.24114 -184.061 366.112
1.82295 162.209 322.913
2.25582 -118.083 -185.12
1.44281 222.386 -243.285
248.364 47.4765 -128.685
242.743 14.7393 229.193
-229.898 46.7454 -126.487
-227.501 17.2638 224.698
-212.458 178.681 99.8711
-139.074 103.237 311.049
-67.4556 227.423 167.612
72.7158 230.996 172.564
1.46837 361.734 14.2948
108.367 333.779 -128.358
-100.463 328.513 -125.483
-158.042 135.815 -228.685
-259.187 202.231 -53.1266
-245.418 28.9431 47.6851
146.363 106.448 316.522
202.504 169.878 106.623
-160.42 -100.345 334.434
3.59811 15.1715 408.397
-228.601 -144.081 -36.4378
-224.063 -151.934 187.492
2.66998 46.2488 -290.889
-140.542 -37.0979 -211.027
257.141 208.631 -58.9898
164.699 138.318 -232.305
241.183 -156.281 190.779
170.822 -101.658 339.303
116.233 -281.656 255.958
-112.138 -278.928 254.416
0.606583 -305.204 47.246
-101.983 -249.323 -101.332
109.273 -252.262 -103.583
147.563 -39.3793 -214.187
239.174 -153.471 -38.7419
260.7 16.7255 55.4877
-203.101 247.938 62.8864
-160.937 201.159 128.185
-129.008 289.412 78.8533
-192.927 61.4201 275.436
-178.341 125.698 235.098
-215.805 83.4801 194.457
-37.9941 195.648 268.194
-108.501 167.774 266.296
-70.8112 138.254 327.449
-47.917 319.711 77.9122
-80.1106 352.08 17.2735
43.664 197.275 268.498
3.40767 236.096 181.049
88.7384 356.099 17.3248
54.5757 320.766 77.3622
128.082 294.604 76.8034
-57.5398 377.715 -51.5257
-136.153 334.429 -48.2615
143.841 345.728 -51.25
62.575 379.748 -51.9238
-53.5742 284.93 -195.045
1.54462 342.955 -135.54
57.9171 286.477 -196.462
-194.098 271.937 -94.1117
-221.854 267.12 -14.4523
-86.4883 182.772 -248.452
-136.53 240.077 -183.595
-249.575 148.988 -84.6566
-221.319 183.965 -138.996
-207.347 88.3989 -181.733
-253.407 202.996 23.797
-234.202 63.2374 -38.0207
-265.241 153.929 -17.7152
-226.724 148.138 64.0374
-236.11 14.8877 149.865
149.326 205.42 137.091
204.69 252.55 60.022
77.3866 139.564 330.558
114.727 170.648 270.388
230.5 81.5243 197.724
185.79 126.632 242.691
203.322 62.6887 280.758
-73.7988 65.4966 371.489
2.74721 96.3079 374.768
-203.08 -44.9666 284.839
-155.178 16.8275 335.042
1.23755 -68.6676 398.172
-78.9539 -35.4784 384.032
-91.9685 -149.887 367.966
-242.098 -61.0881 107.957
-229.041 -76.7351 214.597
-219.364 -59.715 -79.5803
-245.049 -72.3921 5.09606
-199.725 -199.845 121.878
-236.154 -152.676 41.8982
-209.327 -211.972 0.351713
-162.648 43.5183 -235.588
-198.928 2.84421 -173.143
2.11845 125.088 -286.505
-87.2872 92.9309 -279.443
-80.1157 -85.2963 -212.298
-83.696 -4.52505 -265.27
1.43493 -34.061 -262.079
142.276 244.651 -187.983
90.4007 184.81 -250.538
223.453 270.793 -17.5056
198.42 279.071 -97.4046
220.928 87.2264 -186.916
223.595 186.089 -144.47
255.056 133.389 -91.0115
214.994 -208.319 122.786
204.858 -229.778 221.138
150.926 -278.866 173.933
215.305 -45.782 290.243
229.713 -137.169 268.998
247.819 -80.2397 216.426
66.5905 -246.023 331.884
154.548 -203.979 321.303
96.8179 -153.528 369.188
63.2517 -310.019 180.701
101.674 -303.559 46.4053
-62.8557 -244.319 329.754
1.17052 -290.029 261.979
-94.675 -301.085 46.8347
-60.0292 -308.38 180.229
-142.663 -274.901 171.528
66.6628 -299.464 -33.5626
151.166 -277.287 -33.8917
-142.519 -271.341 -31.8521
-62.5115 -299.342 -33.3106
62.1698 -202.513 -150.571
0.848975 -254.571 -106.15
-57.2053 -201.92 -150.869
191.706 -214.329 -78.4847
225.177 -219.173 -1.68987
84.4889 -87.7359 -213.809
132.685 -176.743 -147.405
232.717 -55.5161 -80.1933
201.701 -120.031 -112.649
210.431 2.21972 -177.823
247.624 -160.157 42.1746
247.445 52.2999 -50.3024
259.84 -77.6514 5.755
255.299 -63.76 110.968
254.977 17.0263 157.204
82.9376 -32.4224 390.849
163.104 17.0356 341.755
79.3852 65.5824 376.723
-190.849 -220.754 221.988
-148.671 -199.547 316.113
-214.467 -137.569 263.293
-124.898 -172.365 -144.047
-179.6 -208.502 -73.9321
-194.926 -113.081 -109.746
171.171 43.4616 -239.669
86.9232 -4.96202 -267.325
89.4181 92.9866 -282.779
243.68 106.389 74.2322
266.1 148.461 -20.6726
250.186 210.177 20.4969
-187.207 277.66 45.0009
-168.808 271.467 72.6559
-146.685 299.326 55.3119
-190.855 190.467 115.82
-185.948 240.117 86.9933
-214.729 215.684 78.7591
-103.61 274.889 100.17
-150.651 262.294 92.6194
-115.81 214.219 146.055
-212.577 39.9547 251.473
-208.702 72.2134 235.714
-223.929 50.363 212.19
-162.054 115.178 275.119
-186.892 95.4055 257.818
-168.312 82.7207 295.425
-202.986 136.618 144.782
-199.34 106.541 215.342
-187.28 145.166 176.667
-18.5538 181.29 296.402
-54.7977 170.134 299.815
-33.0117 151.561 327.581
-90.146 190.788 239.223
-74.3645 183.372 269.221
-54.8735 204.99 239.59
-106.143 122.079 321.858
-92.1287 155.43 297.772
-124.535 138.849 290.959
-164.77 161.321 197.392
-146.452 148.656 252.59
-131.846 175.484 221.747
-104.137 320.875 50.6208
-120.22 330.37 20.1256
-60.7693 287.518 107.243
-84.5042 306.772 77.1646
-46.056 362.037 16.3518
-63.8934 339.151 48.4549
-28.9538 345.094 47.7984
22.8482 181.816 296.884
2.09828 199.537 271.44
40.5809 235.609 180.295
22.7888 213.473 242.836
61.5228 208.656 239.121
-16.985 212.219 243.245
-31.8747 234.344 177.801
124.051 339.153 18.7297
108.153 328.235 49.4144
145.883 306.239 52.8982
33.0752 344.217 46.7557
72.1848 341.83 48.3791
51.8032 363.401 15.6808
102.846 275.848 104.496
88.9495 312.204 76.42
66.0289 288.176 109.747
-21.0153 290.883 117.938
24.8262 290.187 118.884
0.768519 320.705 80.5541
-107.87 350.179 -16.76
-152.72 322.021 -12.2973
-29.8959 375.577 -18.1254
-69.3248 368.929 -18.376
-119.932 337.144 -85.9361
-95.8224 363.068 -52.2988
-80.8477 359.596 -87.863
153.082 331.947 -16.5597
116.548 357.49 -17.8341
87.5586 363.406 -89.4714
105.313 368.39 -52.9477
128.986 344.755 -88.0209
76.772 372.285 -18.3426
34.115 376.672 -18.3913
-26.4699 256.085 -222.871
1.36845 288.308 -200.217
29.6328 256.785 -223.652
-55.3084 341.997 -135.022
-28.892 317.828 -167.943
-78.2495 310.534 -161.544
84.8088 313.835 -163.421
32.2379 317.919 -167.878
60.1946 343.88 -135.614
1.87872 379.353 -52.0419
34.0428 369.072 -94.087
-30.1506 367.803 -93.5678
-186.031 301.386 -29.9927
-195.905 288.507 4.06647
-147.677 302.07 -109.998
-167.893 305.625 -70.8301
-242.486 237.868 -33.0545
-211.643 272.137 -52.0738
-228.917 239.19 -74.1912
-44.1536 204.36 -247.849
-69.5662 238.069 -224.334
-147.588 188.26 -207.808
-110.994 213.56 -219.081
-124.631 159.481 -242.48
-95.3026 265.963 -192.588
-118.702 286.244 -156.42
-235.823 92.7149 -107.343
-230.058 115.894 -131.242
-223.455 65.9281 -153.484
-244.466 194.431 -99.1835
-241.033 165.131 -111.406
-260.087 174.288 -69.4333
-185.542 112.205 -208.117
-211.459 138.772 -158.561
-186.883 159.217 -184.087
-169.468 260.138 -140.028
-183.429 212.339 -163.747
-211.884 228.524 -120.058
-215.078 260.59 24.5448
-262.104 205.714 -12.7153
-240.454 235.235 4.39113
-229.806 227.273 44.8182
-238.268 197.245 61.169
-234.549 55.7844 -95.7412
-245.845 113.583 -63.6767
-254.403 117.311 -3.4121
-259.426 125.017 -22.0131
-244.118 55.0585 14.5014
-264.186 155.994 -41.2828
-271.072 173.827 -32.0275
-228.22 51.0082 179.643
-233.387 17.4469 194.832
-225.469 168.852 83.1612
-218.568 104.875 131.993
-244.701 14.3834 93.154
-231.603 60.8527 120.184
-240.806 84.4906 46.9264
-266.517 176.489 -0.600582
-258.023 157.151 8.59886
-251.855 180.406 36.8886
169.705 276.143 70.8027
188.678 281.87 44.432
110.576 220.172 156.597
147.692 266.201 93.697
213.528 226.606 68.989
185.147 248.366 81.6023
180.884 189.037 119.484
38.1793 151.764 328.66
61.0603 171.303 301.486
131.65 141.928 295.823
99.039 157.719 301.307
112.885 124.567 326.465
80.9411 185.906 271.01
94.8518 195.231 241.342
239.174 49.2543 214.124
220.252 72.8674 240.129
225.525 38.1797 256.32
196.893 135.95 194.579
209.545 105.563 221.082
216.122 116.353 172.055
176.815 85.8435 301.057
196.145 97.8384 263.604
170.04 118.375 280.88
133.708 178.655 230.625
152.783 151.044 259.138
168.59 158.51 213.311
-34.0297 120.023 354.051
2.10031 132.437 350.461
-109.667 87.3369 343.249
-74.0716 104.119 351.692
3.32747 55.4571 394.806
-34.8839 80.6777 377.535
-34.2047 40.3078 394.506
-215.419 -14.0608 256.454
-200.269 15.7816 282.24
-158.544 -40.9227 335.627
-181.355 -14.0233 310.614
-186.453 -72.8709 311.856
-176.651 41.6651 307.091
-149.975 62.632 325.784
-0.957331 -131.379 374.521
-47.8658 -115.26 378.628
-52.3098 -169.177 372.932
-34.2778 -6.22584 404.691
-38.5909 -51.2148 396.062
3.46667 -20.444 412.17
-128.787 -126.877 354.247
-89.0477 -94.7363 373.886
-123.993 -71.864 361.665
-116.828 42.3746 357.444
-121.218 -10.2211 363.069
-75.6312 17.8637 385.326
-234.023 -22.1427 183.648
-230.173 -29.5949 218.625
-248.998 -18.9033 78.1636
-243.714 -19.8395 126.923
-226.61 -120.347 203.427
-231.446 -69.7679 170.401
-228.926 -108.218 153.495
-222.431 7.52895 -116.12
-225.697 -5.04041 -63.9684
-239.275 -110.948 -14.8259
-237.687 -75.2637 -28.103
-227.188 -110.48 -51.3776
-242.097 -22.976 -4.32286
-248.178 -23.0797 29.9236
-185.426 -237.857 79.4518
-209.476 -212.693 45.4539
-191.437 -239.791 22.1127
-216.798 -155.002 114.645
-220.555 -181.334 74.8501
-215.575 -179.63 161.99
-221.234 -178.848 -19.0233
-225.676 -181.834 22.981
-237.015 -149.956 3.86524
-246.21 -66.3676 46.5344
-243.663 -114.648 20.8646
-237.743 -108.136 71.0294
-206.713 44.0574 -181.578
-217.846 23.4018 -150.767
-163.533 88.9589 -236.369
-186.997 66.4909 -212.371
-173.73 -14.2833 -194.693
-182.624 22.4317 -207.235
-155.441 2.05608 -225.809
1.54896 171.769 -266.828
-45.4332 155.395 -271.862
-43.4284 69.2393 -290.489
-44.6496 108.78 -286.599
2.89685 84.3525 -295.759
-89.5203 135.811 -269.505
-125.913 116.307 -259.252
-49.1682 -101.07 -204.668
-41.544 -55.0444 -245.384
1.89756 -64.0943 -239.899
-115.556 -23.1148 -240.71
-81.0689 -40.2506 -245.552
-108.203 -62.4511 -215.961
1.71011 3.38882 -279.482
-43.2947 -20.1886 -267.12
-43.8356 18.6127 -281.486
-129.168 67.6267 -262.204
-87.3275 43.0447 -278.239
-125.61 19.3002 -255.796
[...]
POINT_DATA 642
SCALARS Mean_Curvature double 1
LOOKUP_TABLE default
0.00989136
0.00781252
0.00871647
0.00923989
0.00163879
0.0114906
-0.0131801
0.00512637
0.0133625
0.00947744
0.0123531
0.0117233
0.0100937
0.00789124
-0.00211561
0.00062821
0.00105728
0.0100845
0.00868437
0.00808798
0.0123316
0.00729622
0.00836407
-0.00176105
0.005074
0.0117874
0.0104534
0.0066329
0.00510662
0.00550463
0.0120446
0.00742858
0.00709954
0.00699165
0.00802905
0.0108631
-0.000159772
0.00951989
0.00989032
0.00575161
0.00622679
0.00222905
0.00937572
-0.00427268
0.00943737
0.00815286
0.00686736
0.00542903
0.00711472
0.00707262
0.00786904
0.0067724
0.00951021
0.00639076
-0.0016989
0.0108081
0.0052945
0.00528211
0.0176166
0.00721505
0.0145021
0.0155216
0.00687232
0.00254118
0.00674762
0.00803477
0.0133945
0.00562102
0.0040745
0.00360591
0.010809
0.00659717
0.0141779
-0.00704157
0.0130094
-0.0118246
-3.48876e-05
-0.00344572
0.0116612
0.00818716
0.00739383
0.00769942
0.00686913
0.00779198
0.00670075
0.00837867
0.00491557
0.00753175
0.00611878
0.00400227
0.00909419
0.00247738
0.00428356
0.000964737
0.00674146
-0.00755579
0.00902464
0.0101788
0.0105039
0.00757133
0.00598378
0.00880953
0.00564785
0.00947946
0.00655633
0.00475614
0.00513832
0.0106016
0.00761877
0.0084088
0.00627299
0.000987437
-0.00341678
0.012235
0.0057794
0.00261963
0.0119025
0.00568711
0.0100027
0.00925697
0.00835146
0.00897766
0.00697204
0.00990817
-0.00307526
0.00724368
0.00866708
0.0085433
0.00709391
0.0100542
0.00994322
0.00959486
0.00428995
4.09286e-05
0.00688716
0.00910374
0.0115483
0.00531113
0.00763319
-0.000271752
0.00669655
0.00773642
0.00357649
-0.00691681
0.00526508
-0.000843919
0.00619887
0.0056105
0.00696151
0.00709854
0.00836608
0.00846114
0.0116942
0.00619042
0.00851901
0.00836028
0.0100481
0.00861659
0.00828055
-0.00018096
0.00958418
0.0129904
0.00953141
0.0103591
0.00906036
0.00423308
0.00784259
0.0096984
-0.000128642
0.00608193
-0.00605555
0.00805587
0.00782938
0.00948898
0.00773665
0.00786394
0.00800294
-0.00304932
0.00683516
0.00495414
0.00733855
0.00758916
0.00667713
0.00375057
0.0075922
0.00572894
0.0079362
0.00813698
0.00772209
0.00602168
0.00728345
0.00492716
0.00537521
0.00529101
0.00176772
0.00275143
0.0113441
0.00905776
0.00712967
0.00700825
0.0085729
0.00158368
0.00685399
0.00698853
0.00700846
0.000873489
0.00803247
0.00777016
0.00827163
0.00315368
0.0107051
0.00963351
-0.00107549
0.00485915
0.00315617
0.00635213
0.00464483
0.00211492
0.00742315
0.00649741
0.0103236
0.0111396
0.00783062
0.0161267
0.0105444
0.00507992
0.0104885
0.00971112
0.016792
0.00955027
0.0110879
0.00992632
0.00702261
0.00642921
0.00695441
0.0104969
0.0060398
0.00808191
0.00831305
0.00409509
0.0091094
0.00872514
0.00806945
0.0081162
0.0117906
0.00940398
0.00475222
0.00604005
0.010424
0.00793584
0.00580893
0.00362952
0.00736725
0.00337747
0.00505176
0.0073374
0.00672887
0.00337928
0.00268894
0.00555726
0.00988808
0.0136192
0.00958905
0.0182974
0.0080869
0.0012974
0.00281392
0.00671026
0.00578728
0.00727776
0.00841011
0.0165068
0.00784344
0.00737634
0.0195143
0.0048934
-0.00139725
0.00441047
0.0145177
-0.00161666
0.00634131
0.0303665
0.00408654
0.0091228
0.0135116
0.000832178
0.00397344
0.000229444
-0.00131307
0.024386
0.00257895
0.0184596
0.0103908
0.00976392
-0.00246429
0.00578102
0.00899121
0.00667382
-0.00134544
0.0055461
0.00707896
0.00850992
0.00864471
0.00845529
0.00755747
0.00486383
0.00791967
0.00701868
0.00714864
0.00464178
0.00563283
0.0029203
0.00841436
0.00860077
0.00863055
0.0048828
0.00791661
0.00438356
0.00699635
0.00939503
0.00766333
0.00733254
0.00847723
0.00706043
0.00787085
0.00257826
0.00810696
0.00369743
0.00398445
0.0090575
0.00827635
0.00812714
-0.00318289
0.00145831
0.0110815
0.0119416
0.00483353
0.0156267
0.00641958
0.00395086
0.00654756
0.00711266
0.00587342
0.00781431
0.00126407
0.0070437
0.0065923
0.00590994
0.00175026
-0.00163277
0.000902106
0.00410794
-0.00433191
0.0071563
0.00443838
0.00436006
0.00182028
0.00617954
0.00552392
0.00775096
0.00937285
-0.00932753
0.0125595
0.0136104
0.00753917
0.00694895
0.0118395
0.00331951
0.00825475
0.00106295
0.00954978
0.0102212
0.00923624
0.00884188
0.00643778
0.0089287
0.00894081
0.00233503
0.00638988
0.00853157
0.00721724
0.0113204
0.00892494
0.0102186
5.22567e-05
0.00701409
0.00299215
0.00864533
0.00697251
0.00793529
0.00582306
0.00842339
0.00675576
0.00944726
0.00933648
0.00998349
0.00681035
0.00344922
0.00519376
0.00632623
0.00676248
0.00622901
0.00432969
0.00861495
0.0072129
0.010568
0.00769054
0.00797993
0.00807823
0.0059609
0.0123268
0.00589596
0.0112324
0.00292087
0.00306624
0.00714714
0.0110985
0.00629639
0.0106319
0.00575931
0.00891059
0.00607817
0.00507841
0.00198216
0.00355406
0.0147365
0.0077391
0.00829631
0.0122554
0.0132238
0.00765978
0.00603335
0.00552084
0.00755153
0.00790133
0.00854286
0.00691628
0.00418705
0.0112333
0.0133867
0.0113855
0.012901
0.00960552
0.0092379
0.00978591
0.0102102
0.00568384
0.0110529
0.00868991
0.00860935
0.00834085
0.00814378
0.00286965
0.00793325
0.0109352
0.00536777
0.00460866
-0.000250052
-0.00388341
0.0128318
-0.00236228
0.006903
0.0113777
0.00945084
0.0102743
0.00667008
0.00722717
0.0026523
0.00265188
-0.00225185
0.00164776
0.0059741
0.0069063
0.00674384
0.0111984
0.0161621
0.0172707
-0.00318513
0.0109383
0.0100957
0.00707715
0.00869504
0.00981233
0.0110035
0.00954502
0.0100874
0.0103726
0.00993835
0.0104802
0.00969944
0.0112188
0.00616237
0.00520996
-0.00307196
0.00558774
0.00680568
0.00767001
0.00881942
0.00918938
0.00813697
0.00903115
0.00241367
0.00783674
0.00770924
0.00982849
0.00899379
0.00886681
0.00955102
0.0129078
0.00985021
0.0108989
0.000733814
0.00644421
-0.00736533
0.0115166
0.00799684
0.0085417
0.00915123
0.00838014
0.00799989
0.00722321
0.00657263
0.00123468
0.00470111
0.00656867
0.00635027
-0.0080787
0.00915067
0.00707461
0.0105922
0.00891904
0.00233748
0.0123613
0.0123657
-0.00937002
0.00998522
-0.00181501
0.00434554
0.000873449
0.00327919
0.00250309
0.0118946
0.003448
0.0105806
0.00191315
0.000942916
0.00162197
-6.22065e-05
0.0137616
0.0169432
0.0019877
0.00135683
-0.0021712
0.00291384
0.0028871
0.00764945
0.0143474
0.00685155
0.00746398
0.00654161
0.00689723
0.00413997
0.0062683
0.00876761
0.00736589
0.00742701
0.00773981
0.0076375
0.00679037
0.00915682
0.00481222
0.0107447
0.00789494
0.00823589
0.00993705
0.0101043
0.00987183
0.0106206
0.00946058
0.00912605
0.00896155
0.0122661
0.00849363
0.0062216
0.00618036
0.00941336
0.0105578
0.0129408
0.00932223
0.00888004
0.00727382
0.00998969
-0.00658598
0.0100385
0.00738842
0.00972519
0.00957863
0.00888251
0.00808231
-0.00752645
0.008396
0.00373553
0.00852664
0.00806511
0.00851059
0.00684287
0.00959496
0.00867659
0.00842862
0.010958
0.0089231
0.00692802
0.00681371
0.00811667
0.00663601
0.00846728
0.00623301
0.00925822
0.00782824
0.00878882
0.0120316
0.00932733
0.00787364
0.00947514
0.0082475
0.00671746
0.00126269
0.00208988
-0.00217479
0.00688521
0.0101817
0.0136738
4.5744e-05
-0.00849096
0.0102222
0.00687066
0.0127775
0.0120774
0.0149709
0.0136972
0.0132992
0.00475477
SCALARS CoVolArea double 1
LOOKUP_TABLE default
1422.28
1476.6
1717.04
1783.84
2118.83
1210.8
3143.51
2022.99
1034.97
1360.02
1150.89
1250.21
1575.04
1631.58
3564.2
2961.69
1996.94
2249.57
2243.56
2143.57
1635.24
2307.18
1690.83
2747
2260.01
1645.97
1507.58
1857.89
2067.93
2549.5
1602
2275.15
1944.1
2423.89
2477.83
2319.37
3417.97
1776.78
1844.43
2689.59
1649.83
2530.47
1297.57
3087.58
1396.55
1483.83
1763.95
1918.85
1310.62
1560.83
1595
1784.27
1565.08
1384.79
2915.5
1494.61
1897.51
1474.72
1895.75
1928.44
1762.59
2001.39
2243.49
2712.6
2324.12
2327.2
1529.85
2284.72
2652.04
1647.67
2140.7
1928.48
1232.36
3676.31
729.85
3087.63
2119.19
3525.25
1123.74
1634.24
1509.97
1525.3
1628.99
1637.17
2025.26
1738.36
1949.18
2151.08
2810.3
2604.69
2159.64
2846.19
1753.43
2436.79
1691.06
2676.28
2040
1568.06
1774.45
1627.72
2245.59
2079.75
2067.38
1875.75
1809.81
2648.13
2351.25
1750.49
2358.25
1873.77
2312.93
1835.66
2746.19
2155.07
2307.96
2128.06
1981.37
1702.49
2461.53
2501.18
2289.61
2657.81
2461.97
2432.25
2974.47
2344.23
2563.17
2260.89
2249.71
1826.13
1738.78
2132.12
2009.81
2412.15
1864.17
1887.22
1624.32
2092.24
2232.52
2793.85
2356.73
1746.88
2306.92
2968.44
1662.32
3113.43
1795.07
2538.98
2215.05
2029.94
2001.5
2388.36
1752.95
2247.82
1829.04
2239.69
1873.83
1973.79
2116.37
3052.85
1527.29
1189.31
1424.58
1215.85
1519.29
2139.61
1657.77
1399.96
2697.7
2225.83
4055.89
1500.6
1389.7
1220.5
1588.59
1422.31
1459.54
2209.39
1801.2
2111.83
1382.73
1477.86
1510.28
2659.84
1348.01
2012.35
1529.7
1442.28
1589.62
2472.93
1883.75
2912.58
1619.94
1802.3
2606.56
1580.98
1522.06
1460.69
1901.06
1434.6
1314.87
2820.88
1937.96
1889.74
1924.27
2922.69
1648.31
1476.68
1525.41
1997.48
1442.91
1625.25
2516.37
1551.63
2509.32
2805.95
2919.8
2358.43
1757.62
1836.97
1892.99
1492.27
2005.34
1658.64
2081.54
1785.85
1617.22
2189.32
1670.82
1944.51
1561.22
1947.96
2258.63
2398.11
2295.38
2378.03
2382.42
2125.48
2186.7
2448.61
2472.18
2438.58
2782.36
2720.19
1837.6
1561.39
2495.47
2139.46
1634.42
1888.49
2121.84
2405.87
2295.07
2586.17
2339.28
2088.17
2290.47
2537.72
1803.36
2040.23
1647.82
1806.55
1604.22
1130.73
1943.39
2163.69
2499.92
2795.93
2809.28
2448.62
1463.6
1353.4
1468.4
1397.17
1199.34
2385.37
2202.43
1686.14
1735.03
2636.13
1107.19
950.101
1966.12
1433.51
1684.66
2763.18
2492.07
3511.54
3586.72
930.162
1854.84
1234.48
1249.09
1498.04
3592.9
2366.01
1635.51
1943.77
3004.24
1575.97
1541.45
1578.47
1451.89
1552.03
1376.01
2334.18
1367.51
1519.46
1629.44
2465.72
1559.36
2382.5
1572.77
1473.42
1581.08
2855.68
1765.95
2847.54
1710.88
1573.31
1870.14
1740.3
1710.75
1809.59
1911.39
1851.6
1815.93
2409.21
2035.33
2007.4
1706.38
1820.51
3009.63
2738.81
2316.9
2003.08
2453.04
1777.03
2131.45
2549.04
2605.05
2334.45
2710.06
2445.38
2020.43
1678.76
2178.32
2253.12
1613.78
2435.83
2991.95
1970.58
3546.3
1421.37
2287.24
1673.2
3142.56
2228.44
2478.3
2035.54
1719.61
2902.77
2125.2
1963.65
1500.82
1564.28
1444.18
2328.21
1791.29
3128.49
1535.87
1382.25
1880.19
1629.94
2009.34
1515
1681.56
2528.29
2383.59
2108.24
2060.51
1872.77
2063.91
2022.43
2865.84
2057.58
2756.73
1751.5
1763.5
2053.71
1958.77
1801.56
2115.35
2184.39
2263.21
2055.9
2361.92
2445.44
2504.24
2324.74
2180.67
2363.87
2607.21
1759.04
1915.17
1998.04
1955.39
1644.56
2051.8
2447.24
1506.02
2088.93
1474.4
2583.17
2299.2
2030.88
1496.97
2051.77
1878.87
2863.63
2517.39
2867.11
2632.55
2622.46
2619.83
1705.52
1991.3
2098.22
1997.97
1882.76
2445.5
1964.54
1918.72
1774.94
2177.26
1878.09
2078.56
1555.35
1532.02
1591.39
2374.96
2137.42
2425.05
2602.03
2308.59
2352.32
2313.85
2134.29
2337.28
2451.44
2662.35
2870.31
2915.43
2262.39
2234.96
2399
2811.1
3099.82
3962.49
2374.14
2758.94
2612.51
2674.27
2297.22
2698.22
2683.1
2247.93
2836.8
2527.18
3850.99
2887.22
2637.6
1947.59
2291.61
2124.46
2708.45
2668.14
3299.08
1846.97
1810.88
2507.01
1915.78
1768.67
1816.88
2037.98
1703.07
1784.11
1937.56
1742.5
1700.72
1816.09
2433.17
2803.23
2338.14
2729.73
2132.11
2118.21
1700.43
1626.05
2048.1
2021.54
2800.6
2635.07
2717.74
1821.38
1859.86
1938.24
1821.07
1492.25
1692.68
1698.2
2858.9
2073.47
3511.42
2133.63
2137.83
1753.93
1814.07
1890.81
2065.02
1478.98
1848.07
2309.98
2080.8
2130.18
2350.83
3647.46
2040.52
2955.7
1956.04
2068.53
1648.15
1574.38
2233.01
3165.85
1765.78
3113.21
2156.22
2911.16
3124.15
2410.6
1585.58
1946.18
1419.14
3090.29
2401.62
2169.58
2446.42
2176.99
1978.41
2358.54
3438.14
3024.85
2845.06
2751.26
2473.59
1864.03
1943.77
1953.75
1838.48
2105.19
2562.95
1752.37
1868.18
1805.15
1766.77
1941.7
2752.85
2362.19
2337.48
2499.22
2247
1917.34
1994.31
1624.9
2161.92
2184.31
2112.1
2301.26
2450.62
1781.39
1403.77
1466.98
1822.26
2087.75
2554.27
2371.46
2087.69
1997.14
1787.31
1730.39
2136.63
3386.89
1677.01
1722.64
1618.09
1699.46
1850.59
1752.72
3480.81
2147.95
1864.17
1705.81
2023.51
1973.33
2923.19
1588.47
1790.24
1608.35
1692.75
2014.12
2074.56
2099.84
1848.46
1837.37
1855.62
2403.3
2178.5
2143.58
2012.73
2017.65
2195.53
2318.34
2310.1
1469.99
2857.12
2480.33
2595.18
3255.54
1755.76
1302.85
1409.93
2371.28
2948.15
1483.88
1911.4
1108.32
1416.1
1457.56
2083.68
1256.16
2066.52
SCALARS SignedDistance double 1
LOOKUP_TABLE default
130.959
129.559
109.417
101.628
95.8155
133.288
146.742
98.5216
138.782
132.648
148.712
143.482
182.938
131.313
162.192
161.432
130.564
87.5282
94.4299
106.75
130.582
157.814
125.994
160.996
106.231
102.624
135.751
141.319
105.402
132.468
127.136
100.69
130.534
101.122
82.5339
87.9085
110.917
108.682
107.393
128.86
126.645
145.464
149.786
172.852
153.132
135.683
151.832
156.623
145.878
147.187
130.974
148.422
132.464
143.519
164.227
129.299
146.56
151.141
105.967
111.389
108.393
105.322
92.7907
93.2469
91.0952
100.806
122.106
98.2206
102.343
144.783
127.072
125.299
152.483
164.356
160.105
173.996
151.301
158.079
146.4
127.941
142.353
145.896
144.172
129.165
115.043
116.752
127.72
117.548
97.7907
103.779
94.7833
141.935
142.366
152.274
146.139
141.57
138.129
120.019
115.641
138.883
96.0507
98.9128
147.085
116.077
122.308
96.9917
96.0537
118.454
96.8545
113.002
117.819
142.936
135.148
108.12
114.047
116.233
114.184
132.554
74.2336
82.3433
93.6468
111.056
99.9273
74.4655
91.8081
100.41
111.062
118.069
99.997
94.476
100.677
99.7795
129.05
121.077
128.942
110.648
111.464
145.814
127.134
141.397
136.171
130.891
129.257
154.398
144.405
136.942
142.679
98.8546
112.694
111.794
115.005
89.2995
126.711
128.315
117.369
144.346
109.561
113.954
97.1104
155.804
152.093
146.8
139.623
150.17
143.082
180.552
158.848
162.523
160.044
157.885
163.127
139.526
145.976
149.979
140.721
142.989
132.817
168.454
154.879
167.808
139.698
139.408
131.906
152.315
146.705
151.342
130.715
139.319
139.367
165.214
149.486
157.768
146.026
133.957
156.125
152.594
129.646
142.185
138.875
138.892
145.053
164.088
150.049
148.562
150.13
163.635
131.852
142.81
141.973
138.807
140.338
129.099
155.974
149.25
154.247
154.83
153.525
143.19
122.087
119.177
117.372
117.979
99.1693
109.071
91.8715
118.028
117.257
86.5607
103.611
91.5016
115.404
121.488
94.3964
90.8556
93.6239
87.9497
91.2421
93.8558
90.1942
92.1352
88.0355
111.385
94.9009
89.2482
112.579
124.76
98.2785
102.044
121.063
107.193
108.942
98.1829
96.3318
106.81
100.83
100.891
97.0832
99.1262
149.142
142.858
137.372
128.119
137.905
141.946
115.161
131.092
120.057
99.6636
110.235
107.636
134.655
141.915
133.787
148.15
166.606
153.841
156.327
172.187
166.779
163.498
152.346
153.611
154.513
149.512
180.984
162.555
153.384
154.864
168.118
159.339
162.845
165.328
147.393
137.471
158.101
155.883
153.522
152.954
160.478
130.804
136.798
134.734
135.571
126.414
142.82
147.357
138.933
138.2
131.021
151.985
144.814
153.029
127.023
137.1
135.449
149.039
143.394
151.003
123.854
124.929
122.637
122.35
109.327
115.547
108.47
132.263
129.912
115.379
120.837
118.67
126.372
124.15
101.351
101.908
96.1121
101.871
100.038
94.9419
99.542
99.952
106.115
115.433
109.456
108.774
147.507
143.392
149.506
148.815
139.893
144.579
142.225
155.824
155.029
140.599
145.472
140.668
152.171
150.878
121.718
123.906
113.51
141.111
135.487
144.014
125.631
127.546
135.748
145.522
142.871
141.069
131.288
144.523
109.693
118.421
133.574
126.26
123.599
98.1041
96.4039
102.968
97.4476
99.2117
95.7977
99.2494
150.422
129.34
131.874
124.084
126.655
138.486
112.174
118.049
108.419
104.198
104.785
113.764
94.3175
97.5038
95.1014
93.2952
96.9234
96.0634
101.145
121.977
109.952
108.508
106.211
118.117
101.461
94.1488
126.917
127.785
138.878
111.158
118.826
105.904
132.667
129.479
118.901
95.3558
102.952
105.976
113.19
128.086
121.19
123.714
122.263
133.956
98.465
110.4
89.234
123.45
125.393
132.714
103.872
115.069
110.799
130.911
127.353
126.135
88.2761
83.7638
95.9782
76.9293
74.6026
73.5697
95.1314
87.6407
92.5335
107.592
94.1217
89.0404
118.696
98.6309
97.6132
108.353
103.726
121.012
128.105
83.9963
83.5895
81.9162
79.9343
75.9956
84.5697
81.4205
103.213
120.872
126.864
123.589
120.566
103.019
99.4484
110.063
97.9617
107.249
103.159
115.152
94.9417
95.5428
106.978
101.868
98.9336
95.7363
102.754
103.265
98.3168
101.607
97.276
103.021
100.962
103.022
148.987
139.076
145.58
113.061
127.021
118.867
117.384
122.681
112.456
108.069
106.362
112.551
99.2347
103.486
105.727
100.485
121.29
108.741
120.196
149.081
150.604
145.323
152.345
136.522
128.261
116.444
148.819
150.194
133.469
129.758
139.327
133.601
127.774
150.489
143.532
117.853
131.175
125.425
114.573
123.781
124.44
125.886
131.612
147.657
150.612
143.494
141.11
146.384
138.222
137.72
137.794
139.36
131.897
135.221
143.536
140.755
142.155
140.188
142.239
137.383
98.8816
100.349
98.81
95.7042
99.2804
122.427
117.93
119.686
113.787
106.017
123.11
106.631
114.691
119.141
117.679
104.881
110.683
104.407
133.682
100.878
113.134
129.094
131.214
83.4003
101.526
89.9932
79.1094
83.1872
136.256
136.753
137.424
124.53
114.153
99.7184
108.055
121.775
149.87
118.44
127.733
151.568
148.993
108.55
125.111
117.559
108.283
110.933
160.176
151.072
159.59
150.269
137.97
121.431
128.796
134.34
121.794
118.598
118.913
110.797
101.624
128.87
107.864
117.25
124.86
121.232
96.1003
95.555
94.5374
94.4509
101.668
109.969
103.278
100.322
144.997
148.66
145.326
149.723
158.414
150.127
140.17
147.967
156.21
162.162
133.442
153.76
145.4
133.156
137.245
164.599
149.995
156.004
