# vtk DataFile Version 4.2
vtk output
ASCII
DATASET POLYDATA
POINTS 642 double
-183.754 334.857 34.6715
183.261 341.286 32.8383
-187.456 -287.609 49.1647
195.275 -294.379 49.7301
1.05978 -192.007 392.041
1.26047 190.455 350.697
1.64574 -140.435 -222.405
1.00077 236.193 -269.66
284.605 41.873 -140.773
279.164 19.8915 243.5
-271.08 41.2651 -137.592
-266.761 21.2594 238.734
-251.827 196.533 126.172
-161.502 121.484 337.099
-84.8898 266.043 192.327
88.7294 269.777 196.452
1.21679 396.628 28.4982
118.482 353.979 -142.518
-112.741 349.495 -139.949
-177.748 145.425 -251.683
-286.869 215.356 -60.9152
-292.598 30.8381 48.8377
167.167 124.1 342.001
239.745 190.022 128.266
-180.161 -102.791 359.228
2.36285 20.6898 438.444
-264.632 -154.715 -49.2196
-264.347 -161.243 188.012
1.82162 40.986 -322.273
-162.977 -56.4995 -235.735
289.043 221.02 -65.7673
182.712 147.577 -254.994
278.153 -166.035 190.258
188.03 -104.18 363.812
125.066 -302.256 265.698
-122.237 -299.798 263.954
0.520412 -337.667 49.2958
-112.395 -272.467 -121.6
117.579 -275.302 -123.686
168.391 -58.587 -238.691
273.917 -162.99 -51.6133
304.845 21.3653 54.8014
-230.846 272.333 82.3749
-184.412 235.184 157.614
-144.01 320.736 105.973
-224.719 73.0519 296.775
-210.389 150.092 252.991
-257.681 99.6438 204.912
-46.6236 232.325 290.446
-128.605 200.157 287.508
-82.8628 162.053 355.696
-54.9496 353.966 104.476
-92.6316 384.527 30.0971
50.4747 233.516 290.977
2.07479 278.042 206.242
98.8686 388.265 30.3052
59.5327 355.141 103.883
143.917 325.293 104.402
-63.0157 405.433 -54.8193
-154.12 360.669 -51.8051
160.873 370.067 -54.1016
66.3847 407.502 -55.2877
-59.51 303.231 -215.992
1.14928 365.919 -151.117
62.5205 304.603 -217.218
-214.328 291.619 -106.292
-247.712 289.53 -13.8791
-95.6074 195.728 -273.889
-152.491 256.13 -204.816
-288.396 144.533 -98.3758
-246.708 193.213 -159.16
-237.629 91.7195 -201.616
-286.916 218.075 34.2598
-281.538 54.9898 -44.6414
-310.213 146.755 -14.7942
-274.946 145.403 80.3412
-281.58 19.8603 155.335
175.922 236.09 161.916
232.391 275.531 80.849
87.4789 163.294 358.534
133.478 202.731 291.097
268.737 99.1776 207.908
216.609 151.55 258.993
233.074 74.1464 301.633
-86.2122 76.9481 401.76
1.9163 113.021 405.534
-234.79 -43.5157 305.656
-177.803 20.948 361.839
0.650571 -77.0428 425.964
-90.7409 -37.561 412.89
-100.602 -155.541 394.382
-284.77 -67.0209 112.818
-271.41 -79.1698 220.799
-261.066 -64.9123 -93.5821
-288.758 -74.3561 -0.702067
-231.138 -221.972 123.652
-274.301 -164.139 45.9243
-238.589 -230.902 -4.56963
-184.237 39.1124 -261.284
-229.896 -9.72202 -194.028
1.45168 133.797 -314.572
-96.4663 96.0414 -307.932
-89.3621 -105.949 -243.659
-93.4935 -16.3329 -295.599
0.998123 -51.2113 -293.498
157.013 259.981 -208.529
98.3931 197.36 -275.904
248.934 292.43 -16.6603
218.152 297.619 -108.977
247.812 91.1894 -206.21
249.03 195.723 -163.451
292.501 135.79 -103.093
243.284 -229.062 124.937
225.498 -247.054 228.579
166.206 -305.341 173.836
243.782 -44.4453 310.434
256.039 -144.259 284.581
286.869 -81.9867 223.417
69.2458 -261.285 348.017
168.141 -215.868 337.94
103.985 -158.488 395.822
66.6111 -340.426 178.731
107.766 -333.195 48.349
-66.64 -259.702 346.189
0.903888 -312.88 273.353
-102.801 -330.591 48.7092
-64.3781 -338.857 178.504
-159.779 -300.928 172.453
68.5416 -328.432 -42.5708
164.506 -301.4 -42.7999
-158.063 -296.041 -41.0154
-65.5264 -328.206 -42.4304
64.1675 -222.933 -181.228
0.71138 -280.952 -128.225
-60.654 -222.483 -181.328
212.771 -232.065 -95.6494
250.834 -237.432 -6.33111
92.4767 -108.195 -245.134
148.372 -190.774 -176.924
271.029 -62.4592 -94.1695
230.963 -129.133 -138.671
238.962 -10.6844 -198.375
284.649 -171.214 46.1156
293.13 47.2065 -53.4058
302.781 -77.6252 -0.993336
296.343 -69.2525 115.174
297.805 21.1584 160.665
93.8202 -35.6507 418.507
184.181 21.4576 367.941
90.3394 77.2375 406.341
-215.637 -240.026 229.01
-163.728 -212.134 333.575
-244.81 -143.653 279.275
-142.422 -187.176 -173.595
-203.392 -226.74 -91.5854
-225.02 -123.533 -135.487
190.555 39.0307 -265.166
95.7452 -16.6004 -297.489
98.1372 96.1571 -310.764
284.704 117.104 87.8835
308.71 145.803 -18.7529
286.515 223.358 32.8006
-210.946 305.231 59.8265
-190.446 299.888 95.958
-164.502 330.728 73.5833
-221.291 218.657 144.254
-210.639 264.852 115.216
-245.079 236.22 102.443
-118.404 306.296 132.613
-168.961 289.999 123.812
-135.945 250.035 172.673
-248.475 47.7766 269.675
-245.534 86.7403 251.882
-264.843 61.2559 223.806
-189.453 136.926 297.284
-219.23 113.558 277.413
-195.536 97.841 319.427
-246.123 151.395 161.954
-236.64 126.851 230.004
-225.588 169.17 194.801
-23.2452 214.043 321.9
-65.1949 200.834 325.575
-39.9464 177.793 355.979
-108.271 228.72 257.073
-88.9289 218.33 291.156
-67.4236 244.686 257.908
-123.552 143.185 349.318
-108.293 183.687 322.996
-146.191 164.219 315.049
-195.164 192.203 216.364
-172.534 177.445 272.721
-155.137 211.197 239.815
-118.692 354.232 70.6888
-136.871 361.963 31.8033
-72.966 320.855 137.239
-97.1039 340.05 104.81
-50.5903 395.826 29.5952
-73.4432 373.061 69.3491
-30.9426 380.055 68.3415
26.1587 214.437 322.404
1.34537 236.416 294.346
47.386 276.745 204.873
25.7471 253.739 262.12
72.127 247.675 257.903
-21.9722 252.699 262.29
-41.478 275.158 202.769
140.723 369.44 30.9794
122.324 360.351 70.16
164.358 336.419 72.1581
33.9396 379.794 67.8478
79.0604 375.608 69.5346
54.3992 397.117 29.3757
118.152 307.538 135.164
100.65 344.583 104.3
76.8781 321.895 139.038
-25.586 326.032 146.695
28.0686 325.431 147.133
0.700796 355.695 105.729
-124.135 379.782 -11.6094
-170.935 350.658 -8.72535
-32.113 407.87 -12.345
-78.8942 399.925 -12.6176
-135.155 359.933 -95.7497
-109.073 389.411 -55.4213
-89.6856 383.067 -97.9885
172.725 358.939 -11.6039
131.011 386.194 -12.265
94.2771 386.405 -99.4332
115.734 394.151 -56.1992
142.005 366.271 -97.84
83.9363 403.071 -12.7104
35.0674 409.11 -12.5392
-29.5776 272.124 -246.501
0.964131 306.956 -220.978
31.7707 272.701 -247.172
-60.2295 363.871 -149.879
-31.319 338.595 -186.362
-87.3791 330.144 -179.855
91.9464 333.006 -181.607
33.6771 338.864 -186.427
63.5761 365.635 -150.592
1.34736 408.251 -55.6699
35.1284 393.568 -104.709
-32.3588 392.224 -104.152
-206.194 326.306 -32.276
-218.634 315.059 9.80136
-164.384 322.93 -123.789
-186.427 328.489 -79.5797
-269.966 256.088 -37.31
-234.267 293.065 -59.2911
-253.903 256.661 -84.842
-48.5566 217.797 -274.263
-77.5697 253.18 -248.156
-165.866 201.528 -230.406
-124.464 228.121 -242.454
-138.958 171.298 -266.686
-106.974 283.071 -213.589
-133.322 305.251 -174.814
-277.578 90.3329 -118.838
-264.77 117.266 -148.321
-258.253 65.2672 -169.861
-271.517 205.689 -113.347
-273.984 168.289 -129.709
-295.752 178.241 -82.4566
-210.678 118.863 -229.686
-240.482 144.397 -179.296
-210.727 169.296 -206.157
-187.092 277.887 -157.426
-203.34 225.863 -184.619
-234.216 244.195 -136.122
-242.623 284.482 34.9325
-293.41 220.661 -11.5447
-270.881 255.403 10.2768
-261.174 248.223 59.4152
-273.337 211.024 80.3668
-278.861 49.3815 -100.31
-289.282 104.384 -72.3503
-301.154 110.545 3.89507
-303.828 114.354 -25.6488
-289.538 49.5042 7.8349
-304.712 148.477 -50.9613
-310.148 177.751 -36.7731
-273.075 61.1938 185.671
-277.418 21.3682 201.644
-271.838 172.503 103.816
-263.926 116.568 143.249
-290.317 19.3705 98.4476
-277.166 69.4907 127.285
-286.506 88.1482 58.4668
-308.629 180.606 8.08266
-302.724 150.75 23.4368
-294.716 181.741 55.0171
191.196 303.653 94.6964
212.173 308.859 59.5598
132.475 255.289 180.589
166.973 293.822 123.944
244.661 243.626 94.7801
210.466 270.81 110.188
213.109 214.894 144.1
43.5236 178.066 357.033
69.5776 201.906 327.226
151.73 167.021 319.319
113.353 185.799 326.204
128.554 145.315 353.466
93.697 220.421 293.042
111.89 232.276 259.126
276.755 60.7211 226.666
254.968 87.797 256.115
258.879 46.7422 274.269
231.224 162.08 207.619
244.657 126.922 234.796
255.085 138.356 182.406
202.32 100.304 324.494
226.913 115.964 282.336
195.965 139.878 302.19
156.73 213.428 246.944
177.832 179.833 277.945
197.766 189.567 228.253
-40.9341 140.251 384.211
1.48829 154.698 380.291
-126.878 101.859 372.128
-86.1799 121.614 381.472
2.25755 66.9839 425.495
-41.9628 95.0766 408.276
-41.7799 49.0717 424.908
-250.893 -11.8555 273.809
-232.017 20.033 303.537
-180.425 -40.3359 362.414
-208.062 -11.6508 334.821
-211.898 -73.5265 335.174
-204.036 49.1856 331.608
-172.607 73.6727 352.836
-0.635847 -138.373 404.408
-51.3735 -121.212 408.389
-54.951 -176.524 399.772
-42.3892 -5.87325 433.987
-45.425 -56.9057 424.532
2.27003 -23.441 440.173
-143.099 -130.921 380.302
-98.2561 -98.6345 402.405
-139.142 -73.7051 389.219
-134.397 50.0296 386.475
-138.296 -8.86586 391.485
-88.6295 22.1245 415.003
-278.326 -23.5337 189.479
-270.977 -29.5106 229.174
-293.914 -19.7058 80.7717
-287.789 -20.5025 133.257
-268.716 -124.484 206.417
-275.033 -74.2044 174.693
-271.573 -115.65 155.571
-264.785 -1.34824 -125.499
-269.738 -8.76296 -72.2934
-280.416 -116.424 -24.4284
-279.454 -76.9963 -40.3814
-266.154 -115.894 -66.9951
-286.93 -22.8157 -13.9617
-293.202 -23.3835 26.5532
-211.606 -260.24 83.3244
-239.611 -232.359 48.1442
-216.194 -262.132 21.1561
-258.212 -163.308 117.696
-256.148 -196.916 80.3579
-252.946 -195.516 161.064
-254.011 -194.448 -27.9305
-259.837 -198.19 22.0574
-274.152 -161.553 -0.932936
-290.154 -70.7646 48.2725
-286.257 -120.952 20.3996
-279.663 -116.574 76.8451
-237.904 39.4995 -202.059
-253.509 14.7708 -167.221
-184.419 92.078 -261.162
-213.237 66.0827 -235.084
-199.907 -31.3955 -217.718
-209.439 13.5798 -230.604
-177.459 -10.61 -251.606
1.09593 184.039 -294.099
-49.4867 166.475 -298.929
-48.2838 68.4617 -320.923
-49.2172 114.868 -315.208
1.94133 86.4121 -325.202
-98.3414 144.884 -296.066
-140.19 122.702 -284.988
-50.3247 -123.392 -237.975
-45.9817 -76.1045 -275.801
1.35264 -87.783 -270.011
-131.726 -39.0401 -268.882
-91.4334 -58.7073 -275.377
-125.6 -82.7028 -243.811
1.22723 -7.10415 -311.213
-47.804 -34.5675 -298.325
-48.2112 10.7444 -312.774
-144.263 67.2615 -289.609
-96.7701 38.931 -307.91
-141.389 11.0444 -284.106
[...]
POINT_DATA 642
SCALARS Mean_Curvature double 1
LOOKUP_TABLE default
0.00771644
0.00627994
0.00743273
0.00772896
0.00225084
0.00925038
-0.00901562
0.00545905
0.00915701
0.00799767
0.0117684
0.00839169
0.00777804
0.00661071
-0.00190211
0.000409582
0.0025837
0.00802138
0.00738679
0.00677984
0.00497116
0.00561029
0.00682518
-0.00172773
0.00421384
0.00981574
0.00813089
0.00750542
0.00545425
0.00562867
0.00974485
0.00634579
0.00779677
0.00577581
0.00675827
0.00813998
0.000861701
0.00755557
0.00768506
0.00571548
0.00679539
0.00329712
0.00770669
-0.00205652
0.00790993
0.00682665
0.00563874
0.00564158
0.00628029
0.00633126
0.00652207
0.00639995
0.00800742
0.00562766
-0.000888011
0.00849962
0.00531993
0.00627604
0.0120967
0.00653185
0.0111213
0.0111157
0.00598392
0.00313435
0.00583614
0.0066193
0.0101703
0.00496535
0.00420985
0.00509926
0.00822061
0.00619254
0.00644219
-0.00446437
0.0136877
-0.00812057
0.000917037
-0.00392138
0.00915183
0.00672166
0.00669002
0.00636967
0.00647066
0.00644381
0.00588825
0.00693986
0.0056833
0.006222
0.00513332
0.00362954
0.00822897
0.00165504
0.00584767
0.0015522
0.00587166
-0.00531861
0.00753492
0.00818732
0.00829452
0.00635501
0.00542811
0.00734784
0.00382904
0.007745
0.00584705
0.00454507
0.00475047
0.00773852
0.00593267
0.00641822
0.00605415
0.00224025
-0.00315811
0.00771997
0.00610338
0.00260977
0.00879184
0.0062454
0.00795837
0.00748819
0.00815402
0.00943899
0.00628899
0.00778362
-0.00118783
0.00626718
0.00936535
0.00750254
0.00597503
0.00786403
0.00779548
0.00789427
0.00458548
0.00121793
0.00663263
0.00722422
0.00816748
0.0036399
0.00640484
-0.000562879
0.00566394
0.00664647
0.00506961
-0.0035971
0.00834924
-0.000598838
0.00581846
0.00488074
0.00627587
0.00620753
0.0077774
0.0069647
0.00915966
0.00579241
0.00715165
0.00649786
0.00806048
0.00717204
0.00696563
-0.00113819
0.00928507
0.0102718
0.00755679
0.00824688
0.00690543
0.00306644
0.00717453
0.00646572
0.0021823
0.00642607
-0.00640914
0.00690754
0.00645784
0.00748085
0.00652117
0.00657877
0.0066996
-0.00251918
0.00549823
0.00438946
0.00637339
0.00645072
0.00592929
0.0041551
0.00677036
0.0052894
0.00661706
0.00680188
0.00651264
0.00435432
0.00620188
0.00479074
0.00540561
0.00459709
0.00228174
0.00446272
0.0089073
0.00820894
0.00662363
0.00612457
0.0074171
0.000863443
0.00585933
0.00567655
0.00600583
0.000133661
0.00687107
0.00736369
0.00645084
0.0047614
0.00893836
0.0079119
0.000706899
0.00597408
0.00302366
0.00521524
0.00363943
0.00191305
0.0071355
0.00530899
0.00853
0.00946372
0.0062962
0.0117123
0.00770221
0.0054913
0.00909614
0.00711167
0.0115339
0.00709609
0.00912515
0.00859004
0.00612291
0.00545408
0.00604074
0.00830058
0.00555048
0.00694417
0.00697761
0.00443435
0.00760347
0.00648038
0.00649357
0.00627488
0.00806732
0.00787737
0.00448257
0.00488888
0.00795772
0.00608453
0.0057968
0.00384734
0.0061809
0.00353984
0.00481586
0.00623112
0.00585455
0.00401861
0.00427067
0.00302617
0.0065688
0.00766474
0.00985359
0.0139071
0.00682425
0.00162724
0.00298353
0.0056205
0.00503863
0.00620341
0.0072107
0.00902402
0.00777109
0.00700377
0.00849462
0.00533955
-2.55958e-05
0.00602686
0.0093371
-0.00272367
0.00738955
0.0179815
0.00519915
0.00858367
0.0110841
1.18507e-05
0.00373131
-0.000116936
-0.00226273
0.0167185
0.00569924
0.0164867
0.00835305
0.0074863
-0.00273711
0.00591202
0.00853896
0.0070811
-0.0014107
0.00524767
0.00623512
0.0069831
0.0071165
0.00687231
0.00671429
0.00473135
0.0063021
0.00637598
0.00619028
0.00392786
0.00562578
0.00399672
0.00680923
0.0070935
0.00701551
0.0049016
0.00696272
0.00457341
0.00616767
0.00748433
0.00641263
0.00616498
0.00722529
0.00620958
0.00676067
0.00201565
0.00653984
0.00424668
0.00306261
0.00731306
0.00685351
0.00674128
-0.00120703
0.00225929
0.010577
0.00977738
0.00411447
0.0107578
0.00624741
0.00318906
0.00541451
0.00609946
0.00505569
0.00677245
0.0026216
0.00519941
0.00558072
0.0046255
0.00411739
-0.00085587
0.00122396
0.00523009
-0.00480713
0.00711852
0.00388295
0.00504098
0.0029616
0.00463253
0.00455798
0.00680355
0.0074941
-0.00610711
0.00853445
0.0111677
0.00658984
0.00640059
0.00812412
0.00316693
0.00845062
0.00177078
0.00796009
0.00697561
0.00773728
0.00707285
0.00619886
0.00744838
0.0075254
0.00273869
0.00559568
0.00751023
0.006026
0.00836602
0.00715671
0.00790302
0.000468643
0.00643985
0.00387379
0.00733246
0.0063264
0.00619373
0.00512209
0.00693229
0.00575895
0.0074385
0.00739284
0.00797964
0.00591422
0.00370855
0.00532581
0.00556764
0.00579257
0.00545044
0.00423864
0.00673141
0.00583424
0.00744164
0.00715862
0.00582114
0.00625273
0.00568609
0.00962871
0.00425183
0.00841645
0.00319909
0.00305568
0.00622354
0.00822721
0.00515612
0.00885639
0.00502321
0.00678458
0.0054206
0.00426181
0.00318971
0.00218367
0.0114957
0.00818618
0.00834685
0.00946771
0.0115287
0.00564714
0.00465746
0.00580965
0.00464657
0.0071387
0.00663345
0.00685438
0.00644777
0.00939241
0.0112249
0.00882838
0.00884117
0.0102256
0.007496
0.00775028
0.00793956
0.00568276
0.00905057
0.00730448
0.00642445
0.00667971
0.00689226
0.00118357
0.00672649
0.00851803
0.00598404
0.00443127
-0.000668051
-0.00225744
0.00967056
-0.000686005
0.00608156
0.0092181
0.00742903
0.00855515
0.00601114
0.00636387
0.00114964
0.00102371
-0.00191081
0.00055616
0.00572739
0.00647088
0.00655136
0.0090431
0.0112713
0.0117994
0.00100227
0.00836116
0.00804476
0.00589374
0.00822566
0.00772568
0.00835164
0.00798117
0.0080584
0.0081859
0.00779994
0.00804059
0.00772176
0.00896716
0.00550529
0.00459353
-0.000608962
0.00486731
0.00591489
0.00664423
0.00790078
0.00735749
0.0066582
0.00777297
0.00266173
0.0063148
0.00648692
0.00774976
0.00733572
0.0071904
0.00762944
0.00978791
0.00766215
0.00828255
0.00110418
0.00557364
-0.00565858
0.00748824
0.00627431
0.00670814
0.00747044
0.00740527
0.00566145
0.0065086
0.00666855
0.00144689
0.00444423
0.0062637
0.00459961
-0.00535679
0.00734581
0.00722841
0.00825619
0.00695637
0.0033716
0.010339
0.00898799
-0.00699267
0.0106056
-0.00279775
0.0042065
0.000890316
0.00190858
0.00274713
0.00916043
0.00486442
0.00809976
0.00181554
0.00152289
0.00198651
0.000346253
0.010453
0.0109787
0.00151887
0.00228826
-0.00133737
0.00280817
0.00248483
0.0061278
0.0111005
0.00606198
0.00621323
0.00566554
0.00570721
0.00326021
0.00585456
0.00740692
0.00651681
0.00620015
0.00640447
0.00646545
0.00603776
0.00752061
0.00644718
0.00910505
0.00615383
0.00694413
0.0076045
0.00763719
0.00888685
0.00788923
0.00759949
0.00719936
0.00726141
0.0123777
0.00776089
0.00427121
0.00625777
0.00705546
0.00788723
0.00883955
0.00669465
0.00743564
0.00605808
0.00624935
-0.00433397
0.00778789
0.00636521
0.00782196
0.00762881
0.0072184
0.00661932
-0.00526675
0.00497496
0.00325845
0.00772143
0.00697247
0.00648317
0.00638834
0.00788816
0.00729156
0.00710423
0.00859287
0.00715801
0.00635098
0.00600224
0.00673911
0.00601889
0.00716766
0.00559265
0.00738899
0.00654325
0.0069779
0.00965431
0.00755176
0.00665018
0.00759025
0.00806079
0.00407304
0.00118163
0.00291472
-0.00320486
0.00613582
0.00740349
0.0110339
0.00289105
-0.00625241
0.00798507
0.0080653
0.00914411
0.00881061
0.0100836
0.0106375
0.0106624
0.0058098
SCALARS CoVolArea double 1
LOOKUP_TABLE default
1867.45
1909.79
2117.33
2181.33
2458.66
1635.78
2987.02
2333.05
1510
1799.86
1577.27
1695.98
2254.97
2177.74
3611.32
3241.75
2509.15
2789.95
2761.93
2647.12
2359.08
2830.93
2250.46
2996.62
2750.55
2285.78
2077.77
2281.27
2590.53
2832.55
2269.11
2764.5
2377.89
2898.12
3043.99
2913.79
3586.15
2361.94
2425.88
2956.42
2191.86
2871.31
1850.12
3249.66
1870.16
2008.96
2292.92
2313.64
1796.81
2083.25
2104.71
2255.3
2125.79
1865.88
3254.95
2098.88
2341.14
1907.61
2621.44
2470.8
2368.58
2709.5
2710.2
3179.73
2773.82
2844.84
2128.4
2727.09
3074.45
2107.57
2712.86
2411.4
2001.01
3459.44
1345.55
3022.69
2419.6
3681.34
1706.19
2142.64
2047.82
1976.95
2156
2151.03
2577.28
2256
2412.46
2680.8
3157.39
3095.02
2663.2
3139.82
2134.86
2746.92
2180.95
3020.28
2523.43
2120.79
2401.61
2146.38
2706.16
2676.1
2566.13
2475.35
2287.25
3097.7
2780.24
2320.98
2906.44
2399.78
2823.49
2344.1
3134.35
2829.43
2745.87
2563.51
2662.9
2149.4
2973.56
3091.9
2753.82
3089.46
2886.72
2943.79
3469.8
2798.93
3027.24
2710.74
2792.38
2391.51
2302.61
2704.8
2419.91
2886.94
2318.99
2514.39
2228
2584.61
2726.19
3086.51
2801.38
2244.4
2735.29
2991.88
2165.35
3349.67
2185.3
3057.62
2746.9
2593.95
2649.28
3004.26
2432.01
2705.52
2418.86
2724.72
2495.3
2553.51
2712.25
3405.14
2030.71
1851.63
1992.04
1781.64
2074.74
2638.62
2073.47
1923.5
2769.18
2453.45
3934.41
2017.13
1906.44
1734.39
2141.3
1935.8
1978.72
2608.96
2252.34
2668.27
1882.03
1986.64
2016.78
2918.04
1832.66
2370.15
2043.86
1961.19
2144.64
2992.36
2467.96
3243.77
2136.08
2303.23
2865.45
1973.43
2092.92
1993.75
2407.39
1923.56
1811.64
3195.64
2340.63
2301.43
2322.4
3251.57
2187.13
2026.24
2072.08
2465.26
1984.33
2172.84
2681.74
1958.48
2831.66
3219.91
3310.2
2827.32
2313.75
2361.67
2554
2137.91
2523.38
2297.36
2729.52
2311.68
2235.15
2827.31
2346.19
2517.25
2217.48
2597.72
2695.28
2839.17
2723.96
2926.18
2827.23
2604.8
2661.5
2873.58
2997.55
3180.32
3413.74
3369.59
2416.77
2133.81
2968.41
2639.99
2212.87
2436.47
2688.97
2791.27
2747.97
3010.13
2762.61
2558.63
2732.36
2989.56
2234.52
2504.83
2181.03
2476.89
2174.58
1827.7
2412.6
2610.92
2943.49
3318.66
3326.93
3071.12
2029.44
2141.77
2054.48
1975.47
1914.24
2535.9
2425.87
2246.29
2084.11
2924.59
1652.1
1797.86
2311.82
1887.23
2192.9
2914.88
2794.26
3455.5
3588.43
1793.15
2204.28
1921.75
1790.25
2078.42
3719.78
2613.64
2051.19
2309.67
3249.17
2067.14
2040.62
2157.23
1981
2079.89
1868.11
2714.98
1886.04
2029.63
2127.87
2816.04
2025.18
2653.09
2096.04
1997.04
2160.07
3227.27
2361.79
3227.44
2226.73
2086.52
2426.93
2250.97
2240.63
2323.34
2499.32
2319
2307.76
2884.08
2507.1
2476.58
2229.26
2388.86
3207.97
3079.15
2770.37
2616.23
2914.92
2388.38
2611.19
2956.55
3066.74
2939.38
3256.34
3051.39
2338.34
2154.84
2632.94
2592.71
1964.74
2642.91
3083.05
2337.93
3504.54
1962.69
2579.33
2087.61
3207.16
2663.39
2852.04
2517.74
2252.17
3133.88
2618.24
2454.55
2050.8
2117.19
2059.41
2818.29
2378.28
3372.78
2091.87
1913.86
2484.88
2186.65
2400.62
2066.23
2266.16
2875.58
2809.98
2674.27
2575.63
2413.18
2574.89
2616.96
3042.24
2473.42
2899.93
2320.22
2260.28
2487.08
2431.09
2314.52
2661.68
2869.78
2926.66
2744.08
2804.24
2820.67
2987.93
2775.75
2638.66
2798.43
3047.99
2301.65
2463.43
2624.97
2495.92
2238.89
2591.87
2958.22
2078.82
2568.41
2045.22
3011.26
2722.27
2504.01
2066.91
2520.01
2510.67
3396.09
3143.44
3379.82
3007.8
2974.67
3014.11
2391.37
2487.16
2547.79
2563.98
2449.92
3055.12
2429.01
2397.88
2276.11
2755.92
2411.35
2546.2
1992.21
2112.19
2299.03
2880.37
2723.81
2833.11
3161.09
2874.97
2865.48
2757.78
2704.47
2908.76
3212.04
3320.92
3513.32
3279.69
2735.36
2865.15
2846.16
3093.23
3380.41
3990.27
2884.29
3193.68
3191.28
3114.25
2824.04
3130.07
3240.57
2705.27
3227.68
2945.45
3930.66
3245.3
2978.84
2481.65
2758.53
2756.45
3369.85
3340.08
3647.38
2404.3
2353.06
2960.68
2433.75
2325.29
2384.77
2620.48
2242.71
2342.43
2538.29
2320.82
2254.45
2362.73
2905.5
2946.65
2655.17
2902.93
2665.43
2538.66
2213.15
2152.53
2488.19
2581.52
3338.51
3200.85
3263.85
2389.96
2386.63
2537.93
2381.89
2059.46
2289.01
2316.26
3028.31
2557.74
3607.45
2641.95
2571.79
2283.57
2411.4
2342.16
2537.57
2004.02
2358.74
2697.81
2441.3
2506.58
2748.73
3684.17
2712.4
3334.32
2622.39
2617.35
2240.2
2141.65
2710.87
3328.86
2156.03
3254.9
2581.45
3045.38
3191.29
2697.7
2163.91
2330.46
1937.02
3196.29
2651.76
2509.24
2748
2636.25
2615.16
2873
3662.06
3292.72
3263.21
3111.65
2945.2
2524.51
2422.32
2505.1
2342.33
2576.09
3037.99
2258.67
2478.25
2323.79
2281.71
2499.05
3313.69
2971.83
2987.98
2862.06
2870.81
2440.31
2470.45
2276.09
2743.17
2775.28
2677.87
2852.49
3047.96
2279.39
2067.33
2012.56
2352.5
2658.53
3264.26
3092.74
2876.16
2520.72
2364.1
2255.96
2630.12
3500.38
2251.81
2310.24
2175.37
2262.96
2442.73
2284.15
3567.85
2614.84
2354
2260.88
2656.72
2611.85
3296.45
2155.31
2373.77
2163.23
2263.9
2608.2
2493.53
2648.66
2352.27
2331.18
2420.37
2824.88
2746.1
2638.97
2546.86
2613.46
2860.68
2970.6
2976.06
1929.12
3227.28
2780.82
2837.32
3423.85
2171.57
1979.03
1939.44
2527.1
3151.99
2101.04
2342.35
1719.84
2061.98
2170.92
2669.45
1960.24
2588.46
SCALARS SignedDistance double 1
LOOKUP_TABLE default
168.314
166.287
142.976
133.329
121.355
173.843
187.528
128.59
176.417
172.988
191.254
185.68
226.15
171.65
210.916
208.18
167.582
116.303
124.33
139.973
158.113
205.411
164.909
207.022
139.458
133.897
175.332
181.934
137.945
172.163
159.675
132.746
168.79
132.078
107.5
112.642
142.791
142.898
140.152
167.325
166.014
190.543
191.158
218.194
197.334
176.655
196.33
203.018
190.917
191.84
171.182
192.827
169.074
188.075
209.843
165.037
190.771
195.146
133.074
142.354
137.356
131.945
122.792
121.263
120.53
133.683
156.381
129.571
134.29
185.841
158.921
161.603
187.238
210.418
205.3
220.81
198.626
205.443
188.268
167.414
186.031
189.889
187.989
168.184
151.115
152.782
166.137
154.43
127.386
135.74
123.936
186.784
185.905
196.409
191.119
175.893
177.566
155.348
150.564
178.148
126.688
130.209
182.825
150.956
158.763
127.97
126.727
152.207
128.406
147.418
150.844
179.374
166.324
133.867
143.637
152.158
144.574
172.657
98.0318
108.291
122.183
141
131.203
99.0845
115.829
132.502
141.103
148.023
131.934
125.71
133.467
131.663
165.553
154.638
165.471
144.232
143.636
181.09
163.509
183.091
177.066
168.466
168.408
198.158
188.234
179.486
187.169
129.711
147.874
146.686
146.675
116.548
160.129
166.46
153.445
184.675
143.132
148.442
127.341
199.914
194.077
185.579
179.049
192.899
183.719
222.614
203.615
204.852
207.007
203.812
211.376
181.065
189.385
193.845
183.332
185.741
173.408
217.024
199.887
215.804
182.625
181.862
172.332
199.401
191.531
198.406
170.934
181.656
181.748
211.519
193.971
204.635
186.099
170.352
203.434
197.578
165.753
183.018
179.39
181.556
189.47
208.856
195.717
194.771
196.366
209.591
167.452
182.922
182.137
180.347
180.489
165.215
203.194
193.914
200.98
201.213
199.477
187.615
155.428
153.574
149.709
150.721
129.123
137.975
120.41
151.362
149.676
114.084
130.867
120.025
147.294
153.165
124.493
120.533
123.488
116.767
120.064
123.541
118.7
120.952
116.027
137.842
121.611
117.096
145.277
160.521
129.901
134.086
153.58
139.835
142.407
128.555
127.051
139.683
132.761
133.121
128.168
130.011
191.887
178.996
174.84
157.457
174.262
177.742
149.643
165.596
153.289
132.319
142.433
140.499
172.713
173.089
170.039
187.71
204.413
198.98
200.023
218.444
210.79
208.792
193.493
189.415
201.909
195.049
227.414
211.502
200.341
203.269
213.956
200.131
211.086
211.036
190.131
176.668
206.142
201.195
197.815
197.899
207.18
170.894
178.86
175.804
176.905
165.385
187.008
193.615
181.259
180.083
170.576
198.002
189.29
199.875
165.882
178.322
176.434
195.324
186.908
197.477
161.998
163.189
160.822
160.542
142.998
151.441
142.228
172.591
169.222
150.944
157.899
153.541
165.21
162.529
131.97
132.49
123.551
133.094
130.602
123.015
130.79
131.333
138.591
151.788
144.041
142.468
193.074
185.222
195.419
194.333
183.215
189.335
187.034
199.802
199.811
184.497
190.118
184.091
198.781
196.909
156.551
160.086
147.574
183.478
174.688
183.132
163.896
166.123
173.79
190.786
186.657
185.735
168.858
183.562
143.26
153.816
173.299
163.564
160.952
128.955
127.294
134.234
127.949
128.973
127.221
131.405
186.206
167.004
170.658
161.267
163.748
176.552
146.659
153.626
142.264
136.914
137.611
148.532
124.425
127.803
124.477
123.488
128.163
127.064
132.844
157.286
142.837
139.242
139.156
150.982
130.366
123.919
162.504
162.398
176.826
143.574
152.31
139.228
166.602
163.321
151.726
126.856
134.57
136.659
145.721
158.764
149.832
156.021
154.467
171.032
124.691
139.025
115.763
161.239
163.109
170.716
135.522
148.409
144.384
170.716
162.374
160.198
112.184
106.634
123.753
102.055
99.046
97.9268
125.089
113.081
120.606
135.746
122.602
115.526
146.133
129.748
123.31
137.962
136.015
148.227
156.944
108.326
107.819
106.995
104.068
101.227
108.186
106.396
135.787
149.269
156.544
151.736
148.112
135.431
128.883
139.843
125.03
130.523
126.587
146.517
125.181
126.407
138.35
133.059
130.898
126.313
134.545
135.759
129.975
134.051
129.301
136.29
131.5
135.247
184.359
174.723
181.228
146.864
162.175
153.486
152.472
158.144
146.493
139.613
139.455
144.925
131.087
135.591
138.953
132.95
155.355
141.655
154.91
185.232
184.865
181.302
186.246
173.54
163.492
150.94
187.698
187.41
171.206
169.786
181.054
174.16
166.192
187.024
181.438
152.965
169.636
161.462
148.089
163.011
158.165
162.833
171.379
189.411
191.212
187.269
185.063
191.113
181.667
176.608
180.427
181.366
173.761
177.271
188.397
184.312
184.617
176.417
183.993
178.889
129.245
132.345
129.468
125.411
129.072
159.844
154.948
156.863
149.058
139.428
160.754
139.439
149.802
156.305
154.659
137.514
145.682
136.805
166.451
128.755
143.781
162.737
166.277
108.622
131.401
116.868
104.674
109.416
175.702
175.325
176.358
159.988
147.723
127.178
136.351
151.526
183.583
154.48
164.307
186.224
185.166
142.417
163.127
152.931
142.358
145.812
200.271
188.583
196.606
192.202
178.993
158.74
167.018
172.965
157.556
154.602
154.725
144.146
133.953
166.065
141.281
152.445
161.396
157.507
126.682
126.796
125.135
124.658
132.007
143.819
135.632
132.112
189.418
193.68
191.056
196.5
203.796
191.506
177.123
188.075
201.045
203.566
170.863
197.111
185.496
168.753
171.008
207.609
190.167
199.265
