# vtk DataFile Version 4.2
vtk output
ASCII
DATASET POLYDATA
POINTS 642 double
-122.158 235.764 -16.2667
120.25 245.273 -20.6844
-112.81 -208.763 38.821
132.248 -216.187 39.1564
1.21696 -176.535 296.895
3.82187 86.7785 263.84
3.01692 -62.3348 -93.1242
3.01974 191.554 -178.597
151.601 67.7641 -119.166
152.498 -1.83593 204.482
-125.579 65.6019 -115.786
-126.806 3.0318 204.558
-150.053 150.654 40.5407
-83.1271 52.5032 257.452
-26.9145 133.554 110.115
40.0726 133.805 116.095
0.772343 282.362 -38.0843
83.2838 291.002 -94.9059
-68.9136 283.875 -92.1185
-105.815 114.821 -179.566
-174.798 188.792 -38.3621
-135.943 22.5365 25.2831
95.2243 56.9328 264.007
116.039 118.899 49.138
-109.006 -99.9306 279.833
8.08925 -6.87605 338.145
-136.918 -130.892 -5.41808
-122.81 -137.283 192.329
5.42064 65.7387 -216.524
-84.3902 15.7507 -159.706
167.598 191.497 -51.2376
118.927 116.883 -182.844
148.855 -138.558 198.169
126.748 -100.879 282.962
94.2204 -229.954 239.186
-83.125 -226.33 238.163
-0.00538267 -225.2 35.6389
-78.4074 -200.33 -47.3226
93.3567 -201.847 -48.2933
96.4196 13.5801 -161.935
154.863 -141.195 -7.48615
156.109 1.53924 58.8392
-143.617 196.156 -1.93964
-106.774 121.064 55.5984
-103.378 221.789 -2.21174
-112.314 27.631 234.512
-98.862 58.6493 204.155
-112.378 43.9684 177.055
-15.3085 104.249 223.859
-58.3216 83.2368 226.885
-41.2196 73.6851 268.111
-25.3851 244.887 5.355
-48.8825 278.939 -32.5429
28.4837 107.218 222.978
6.22333 131.091 121.518
65.482 283.313 -33.1781
39.1819 244.608 6.18058
96.8578 226.667 -4.25422
-42.7565 305.164 -60.7157
-89.7569 265.018 -54.3292
97.6363 286.576 -61.0213
56.0003 305.98 -61.0677
-38.1275 243.33 -146.132
2.04909 288.625 -95.9011
47.032 245.501 -148.375
-145.969 227.68 -67.9887
-159.525 214.82 -31.5895
-64.1775 151.405 -189.369
-95.8295 203.684 -132.367
-155.289 179.236 -57.9475
-146.195 176.978 -91.1726
-125.94 84.7596 -143.829
-177.985 187.034 -10.9098
-122.291 88.7795 -11.5012
-169.147 179.288 -33.2101
-137.811 168.085 46.2234
-128.812 -2.55776 138.206
85.0727 132.334 78.1552
139.915 211.698 -9.14058
54.6928 74.7557 271.017
68.9767 88.5311 230.587
139.091 32.178 181.993
111.368 60.6451 214.007
127.887 28.2049 239.597
-42.9445 32.7198 303.264
5.09267 49.9629 305.326
-120.682 -52.0413 244.574
-97.5859 3.48406 276.765
4.63411 -46.0223 331.9
-47.2513 -33.7549 315.858
-72.558 -142.949 303.181
-140.538 -50.9087 96.6806
-126.145 -72.7091 209.214
-115.879 -52.8124 -46.859
-140.162 -73.525 18.2104
-137.586 -147.469 117.024
-138.636 -135.334 29.3013
-131.138 -174.518 9.61152
-105.39 60.9672 -180.368
-115.417 40.576 -134.884
4.38005 104.491 -220.889
-65.3057 89.304 -211.683
-61.2746 -24.6822 -144.708
-59.1206 33.0113 -196.969
2.50031 17.1761 -192.465
105.677 211.008 -140.276
72.0747 154.722 -190.11
159.287 222.608 -32.3776
150.861 236.594 -75.0902
150.487 82.2 -147.342
155.944 170.904 -101.191
161.715 136.929 -71.8183
158.779 -149.749 114.881
140.017 -187.588 216.556
107.114 -214.441 180.002
143.108 -52.0582 248.277
151.404 -128.433 241.777
152.112 -77.5768 208.64
62.5152 -212.129 293.899
118.732 -180.32 281.549
81.6049 -148.063 303.392
60.2514 -232.304 196.643
91.5599 -232.488 39.5802
-54.8975 -210.515 291.634
1.63254 -227.06 237.715
-77.3584 -231.63 40.5063
-54.4591 -230.961 193.755
-91.3978 -213.497 175.029
65.3898 -231.924 -12.2369
120.372 -223.76 -12.2358
-103.655 -217.707 -9.83705
-58.4083 -231.752 -12.1065
63.9052 -162.173 -67.6591
0.480671 -194.755 -45.0395
-55.8832 -160.858 -68.1239
137.553 -182.101 -32.9758
151.321 -187.135 7.3567
71.565 -27.3378 -146.575
94.3853 -151.034 -68.6763
139.206 -41.2802 -47.8634
133.761 -103.787 -46.0822
138.045 41.7313 -136.46
157.387 -140.901 29.6544
134.063 61.6261 -44.11
156.475 -87.1429 21.434
156.891 -53.6812 101.266
153.388 3.47064 152.26
54.2579 -26.8599 326.662
109.914 1.95032 283.353
53.3019 31.4088 309.235
-119.396 -180.104 216.305
-107.407 -175.855 276.296
-125.127 -131.143 239.372
-81.2045 -145.055 -69.5768
-118.181 -173.935 -29.5709
-121.164 -94.6538 -42.1556
121.808 61.4324 -183.215
66.3315 31.4661 -198.481
68.4029 88.9672 -215.383
155.542 79.7237 46.1954
162.78 171.987 -31.4149
159.857 192.499 -28.5685
-134.219 217.433 -7.54724
-125.149 211.951 -0.701138
-113.518 229.306 -7.50237
-144.905 137.981 59.8288
-135.249 188.923 3.9494
-154.027 171.112 9.42084
-71.5738 202.539 14.5045
-113.387 201.33 5.43241
-64.4786 129.373 83.9336
-121.352 14.9075 218.995
-115.682 31.0042 210.18
-121.963 17.4697 197.477
-94.0768 55.5026 233.513
-105.858 44.772 222.967
-100.044 40.0341 247.377
-130.79 100.418 115.061
-106.058 54.2684 188.564
-125.455 85.2811 139.144
-5.97546 96.9191 244.284
-28.2131 89.0634 247.362
-15.0643 81.1102 267.284
-44.4823 98.5051 204.236
-37.0595 94.8165 226.756
-22.9805 108.572 204.311
-62.5986 64.1599 264.697
-51.6656 79.4862 248.103
-71.1391 69.7577 244.321
-86.8444 80.5302 157.849
-81.696 71.1417 216.739
-70.1298 86.1612 186.552
-74.0754 244.622 -17.0636
-85.6126 254.456 -29.9642
-25.9275 212.995 31.1161
-52.9208 234.226 -0.687987
-36.2186 285.016 -33.4451
-38.7317 265.502 -18.6345
-23.4785 266.09 -14.443
15.7088 97.6989 243.64
5.46766 106.853 224.823
30.3433 130.256 123.181
17.5566 112.324 206.016
37.3408 111.858 203.299
-3.96599 112.221 206.547
-11.876 132.121 119.228
85.036 268.105 -30.8919
76.8956 257.909 -19.9391
112.115 239.016 -15.0728
32.1812 265.312 -15.2674
56.1397 267.911 -19.3291
49.3767 286.808 -34.5008
66.3156 202.631 27.5129
58.8862 242.059 -0.154963
36.3208 212.108 34.8891
-5.93537 211.007 42.041
15.2998 209.439 43.7975
1.64714 242.926 14.0797
-66.5918 280.119 -47.0978
-113.477 252.224 -34.0441
-27.7929 299.274 -51.2721
-44.9622 297.461 -51.8789
-78.8213 283.568 -70.9475
-57.6826 298.379 -62.5
-55.9347 303.797 -71.0907
106.935 265.274 -47.8251
80.4424 291.545 -49.9599
71.8665 308.042 -72.1922
76.9345 302.836 -62.0684
93.4049 295.669 -71.6614
61.9482 298.905 -51.4449
35.5674 298.355 -52.9751
-18.6649 220.803 -165.503
2.76288 246.057 -152.064
25.0817 222.058 -166.882
-43.7424 293.825 -99.344
-23.3426 268.605 -122.875
-53.2779 266.275 -116.296
66.5566 269.779 -117.609
30.0888 268.545 -123.458
54.477 294.97 -99.2766
2.37926 299.555 -60.6084
34.2247 307.054 -73.5982
-27.0319 308.571 -73.941
-137.722 240.098 -37.2685
-141.88 227.814 -25.6628
-108.344 255.878 -79.2519
-124.32 250.282 -56.6864
-174.312 198.545 -34.1132
-156.585 223.276 -43.1018
-168.258 204.646 -51.3047
-34.4604 172.952 -183.847
-49.6062 204.866 -168.189
-99.8341 158.506 -157.003
-75.8485 180.852 -166.018
-88.1268 131.377 -189.24
-64.6929 228.181 -145.035
-80.805 243.081 -111.416
-129.892 105.34 -93.4047
-131.888 121.854 -101.447
-127.169 74.6129 -129.261
-163.694 186.877 -61.342
-154.45 184.354 -78.0498
-177.496 187.495 -44.0693
-117.682 99.2701 -163.064
-128.088 133.308 -115.099
-120.009 139.913 -134.326
-128.904 222.033 -99.3417
-131.678 186.425 -112.455
-154.412 199.81 -81.6289
-152.443 207.943 -15.3675
-183.813 192.43 -28.5172
-172.741 192.696 -23.8176
-161.618 183.325 -5.53826
-166.149 174.355 8.92389
-125.422 71.9946 -92.5051
-142.295 148.863 -42.6021
-162.471 131.328 -20.8621
-165.849 144.734 -23.1989
-146.243 57.1161 13.4998
-173.287 183.417 -32.5329
-177.104 186.894 -30.7928
-121.314 21.461 170.807
-126.85 3.56168 188.161
-151.768 153.33 35.2495
-111.182 81.7492 108.094
-135.338 -3.3452 81.1951
-124.511 37.2852 102.109
-147.55 69.3811 10.6177
-184.219 191.736 -27.4299
-177.049 171.7 -40.9607
-176.784 185.753 -6.48572
127.029 218.765 -4.08943
136.751 224.391 -10.4741
61.0989 134.301 101.068
106.689 199.471 9.89415
137.838 195.89 -5.34902
126.939 201.873 0.211509
102.432 128.985 58.0675
25.677 81.4554 267.961
41.2006 91.3042 247.854
82.6212 73.0051 250.237
64.3704 81.9345 251.284
75.2685 67.3257 269.995
49.7524 99.7171 226.769
54.3903 105.628 206.307
148.326 14.3842 193.99
136.436 29.4908 211.324
143.225 10.6345 221.124
112.902 70.5025 168.761
126.425 48.3717 197.71
123.11 60.9194 150.868
112.897 44.5099 254.148
119.636 46.1585 229.765
105.772 58.7583 241.646
78.2793 94.0105 198.087
91.7429 75.8108 224.589
97.9605 82.5266 183.407
-16.3792 64.5099 287.298
3.91964 72.1697 285.085
-66.713 46.5066 280.216
-44.5394 56.2384 286.468
6.70159 21.1577 324.215
-16.7337 39.7529 307.672
-14.4209 13.172 325.153
-125.85 -20.2165 224.973
-118.512 1.81815 239.444
-101.607 -46.4326 276.429
-111.526 -21.845 259.656
-117.706 -77.6531 262.209
-106.49 18.5683 256.216
-92.8052 30.4087 267.856
-1.55629 -116.687 301.546
-41.5615 -101.647 305.846
-49.0429 -159.594 303.807
-10.4179 -12.1019 335.609
-18.5196 -37.8441 328.805
8.13073 -17.8706 343.641
-92.31 -122.932 294.158
-66.7159 -87.8143 305.963
-84.1106 -71.9558 297.836
-72.9049 19.2981 292.301
-77.3132 -16.6957 298.687
-41.6354 3.12097 316.471
-127.563 -21.6284 174.369
-126.919 -29.7796 205.78
-141.564 -24.2609 73.141
-138.344 -25.5789 112.004
-125.492 -114.223 201.825
-127.123 -62.605 160.15
-126.711 -94.8303 147.508
-115.543 31.3595 -100.829
-117.561 -0.333425 -47.1402
-140.131 -106.778 5.79125
-137.114 -77.1618 0.518822
-133.574 -106.679 -14.6379
-134.883 -25.6423 21.8409
-140.616 -24.8136 39.034
-114.172 -192.52 65.0743
-129.623 -174.099 34.1954
-123.765 -194.202 20.5308
-122.571 -148.275 105.588
-129.109 -153.412 57.3061
-115.673 -150.319 166.015
-137.739 -152.426 1.18047
-138.792 -152.901 20.5034
-139.884 -134.355 12.7432
-141.043 -60.1113 44.326
-140.43 -108.04 20.3199
-138.242 -93.8214 58.2519
-122.922 62.5608 -143.642
-120.287 51.7164 -126.653
-107.287 85.3592 -182.661
-117.23 72.6697 -165.072
-107.412 33.6072 -148.881
-112.885 51.5256 -159.745
-99.0398 40.9915 -172.256
2.87768 141.78 -203.195
-36.5541 128.408 -209.067
-32.1716 76.4887 -216.987
-33.7113 97.4037 -218.837
6.25242 85.1874 -224.366
-68.3561 115.291 -208.799
-89.1148 103.296 -201.121
-63.2681 -37.1208 -120.987
-32.3186 6.15101 -178.091
3.10267 3.24607 -173.874
-74.756 24.251 -179.868
-54.8013 13.294 -178.71
-59.3352 -10.1054 -153.613
2.82715 34.9606 -206.532
-32.6863 23.1384 -197.507
-34.3993 43.1946 -209.56
-90.3337 73.2502 -200.66
[...]
POINT_DATA 642
SCALARS Mean_Curvature double 1
LOOKUP_TABLE default
0.0293177
0.0401396
0.0245377
0.024705
-0.0154611
0.018183
-0.00918491
0.000912048
0.0329253
0.0263726
0.0116905
0.0254454
0.741422
0.0158445
0.00150445
0.00783657
-0.0102579
0.0287294
0.0210129
0.0170833
-0.0954216
-0.116358
0.0194663
-0.00201766
0.0153866
0.0128616
0.0123286
0.00904562
-0.00172002
0.00785894
0.0150652
0.013642
0.0107281
0.0148174
0.0170101
0.0189809
-0.00409333
0.0238325
0.0194283
0.00856964
0.00916293
-0.00238828
0.0173129
-0.0263302
0.00525299
0.0167968
0.0239961
-0.00189282
0.0136789
0.00422529
0.0169911
0.0102264
0.0154925
0.0184795
-0.00520364
0.0241938
0.0107938
-0.00487436
0.0445107
-0.0329751
0.0433192
0.0414245
0.0128456
-0.00436678
0.0140901
0.0182841
0.0214986
0.0088197
-2.97764e-05
-0.0119886
0.0149359
0.0174854
0.0708963
-0.0228485
0.244326
-0.0339732
-0.00136306
0.00200596
0.0236196
0.0153619
0.00672706
0.00536542
0.00449002
0.0102435
0.0124228
0.0184491
0.00286948
0.0173757
0.00759308
0.00374769
0.0162809
0.00668885
-0.000619649
-0.0139984
0.0107283
0.0477721
0.00683805
0.0113735
0.0237095
0.0120121
0.0103456
0.012109
0.16036
0.0166625
0.0110641
0.00674152
0.00469543
0.0460025
0.0267037
0.0281443
0.0175207
0.136676
0.0511097
0.0261545
0.0183711
0.00610206
0.0145877
0.00123924
0.0295446
0.0188411
0.0106617
0.00589452
0.0105966
0.027428
-0.0149244
0.0190948
0.00489182
0.0232398
0.0216251
0.0303365
0.0290333
0.0207632
0.0150722
-0.0117239
0.0188874
0.0232115
0.0195942
0.13764
0.0057187
0.000776355
-0.0320324
0.0209358
0.00166581
-0.0133578
-0.0079714
-0.000145317
0.0125634
0.009441
0.00919553
0.0109283
0.0159558
0.0241284
0.00771052
0.00398323
0.015625
-0.0827755
0.0211172
0.0161707
0.0109275
-0.0709021
-0.023198
0.0055619
0.0260494
0.0248081
0.0245098
-0.0478505
-0.0060522
-0.0756641
-0.00692813
0.00302901
-0.00273409
0.0161786
0.010283
0.00463268
0.0168692
0.0157867
0.017542
0.0955262
-0.0213463
-0.0613699
0.0141316
0.00813962
0.00872342
0.00686655
0.00926899
0.01231
0.0156537
0.0124091
0.0136543
-0.0219851
0.00897841
0.00756487
-0.00465255
-0.00593965
0.00126264
-0.00228186
0.0232728
0.00238193
0.00930763
0.00923644
0.0133441
-0.00266323
0.00384388
0.0174442
0.0127809
0.00525397
0.0118112
-0.00183757
0.000252503
0.000477854
0.0110217
0.016095
-0.00264931
-4.63192e-05
0.00566913
0.013912
0.00893447
0.0121505
0.0210251
0.045749
0.0333831
0.0177136
0.0402948
0.0228039
0.0535701
-0.0259301
0.0171919
0.0509237
0.0421607
0.0541295
0.0158135
0.0150196
0.00883062
0.0138836
0.0103083
0.0269183
0.00495586
0.00871654
0.0100151
0.00134578
0.0189893
-0.0190485
0.0379919
0.0462769
0.0334435
0.00761907
0.0131946
0.0310685
0.0599942
0.0322669
0.0370608
-0.00029735
0.0161123
0.00620014
0.00809233
0.0164265
0.0140444
-0.00496816
-0.00082607
0.00796737
0.0147284
-0.0736077
-0.0555821
0.22027
0.0117856
-1.00904e-05
0.00496592
0.0167543
0.0135923
0.027409
0.0164636
0.130802
-0.0312844
-0.0355147
0.0211205
0.00267185
-0.0198177
0.299978
-0.0925357
-0.0944958
0.0159543
0.00280357
0.00198369
0.0131505
0.122687
-0.0416596
0.00202967
0.00188725
0.0144854
0.180463
0.0564626
0.0288428
0.0261009
0.0406979
0.00339985
-0.00299667
0.00617908
0.0175093
-0.00273406
0.00617778
0.0083378
0.0118811
0.0108436
0.0208643
0.0135419
0.0115831
0.0176766
0.0101503
0.0111753
0.00540456
0.00905451
-0.00141951
0.0206811
0.0081877
0.0150759
0.00690797
0.00742536
0.00665722
0.00787109
0.0233818
0.0147194
0.017306
0.0130496
0.00775305
0.0165545
0.0167796
0.0127167
0.00323458
0.0108809
0.0161475
0.0156134
0.0165249
-0.00564625
-0.00151719
0.0035954
0.0225246
0.0107105
0.0542329
0.0121884
0.0140462
0.01167
0.0128855
0.0113623
0.0113923
0.000612955
0.00209788
0.0116826
0.0107359
0.00253233
-0.00300405
-0.000955946
-0.00321078
-0.00243032
0.0186712
0.00741793
0.00364408
-0.0084658
0.0326503
0.00180917
0.0218681
0.0139327
-0.00332063
-0.0431833
-0.0730823
0.0271952
0.0236705
0.0149993
0.00370552
0.00543762
0.00116759
0.025701
0.00713104
0.0163363
0.0204461
0.00399748
0.0178151
0.0149957
0.00160274
0.00986503
0.0067075
0.0181247
0.0307007
0.0225853
0.0254907
-0.0278906
0.00361076
-0.000561325
0.0161232
0.0160499
-0.0266849
0.0135442
0.0194103
0.0162485
0.0268096
0.0224263
0.0226965
0.0103143
0.000453456
-0.00173949
0.0125309
0.0153693
0.0130944
0.00653858
0.0203161
0.0546326
0.0265562
0.019229
0.0393881
0.00881819
0.00366654
0.0415323
0.0182385
0.0682708
-0.000199223
0.00600803
0.0139222
0.0228101
0.000757877
0.024458
0.017406
0.0251032
0.00343636
0.00485128
-0.0103166
0.00338945
0.0190536
0.017193
-0.0408395
0.021733
0.0126128
0.028963
0.020611
0.0110487
0.00518079
0.0229132
0.0196104
0.00337662
0.00151934
0.00242193
0.0063938
0.0310623
0.0221401
0.00318343
0.0226976
0.0288933
0.0258079
0.00788512
0.0159203
0.0147899
0.0215476
0.0268752
0.0158453
0.039243
0.0221449
0.0200698
0.0175294
0.00868059
-0.00782473
-0.0116502
0.0390567
-0.00980538
0.0202295
0.0224169
0.0266044
0.0168843
0.018145
0.0179786
0.0437146
-0.00307127
-0.0094461
0.00282442
0.0106325
0.0217416
0.0261771
0.0249192
0.0403131
0.0449993
-0.0128784
0.023563
0.0239373
0.0150663
0.00251753
0.0287083
0.0290761
0.0161119
0.0251465
0.0289641
0.0247414
0.0326088
0.0261941
0.0103445
0.0146972
-0.0123864
-0.0164116
-0.00969804
0.01461
0.0191477
0.00669075
0.0158313
0.0238977
0.0128602
-0.00293008
0.0251715
0.017475
0.0351424
0.0294493
0.0223744
0.0254115
0.00510276
0.0339492
0.0162569
-0.0248134
0.0845444
-0.0377061
0.0539394
-0.0602826
-0.0118775
0.0291274
0.00886865
-0.0870585
0.0276089
0.0219072
0.0794471
0.00551571
0.00787856
0.0545509
-0.0196185
0.0206646
0.00459865
0.0139815
0.0510812
0.0397888
-0.00586575
-0.0443283
-0.0111357
0.0043091
-0.00108839
0.00271566
0.00225139
0.00709007
0.00793605
0.0160049
0.000227572
0.0199949
0.00275779
-0.000192506
-0.000196324
-0.00190301
0.0289356
0.0196193
0.000839945
-0.000407578
-0.00279555
0.00858476
0.00335895
0.0194356
0.0301082
0.00931665
0.017805
0.0135864
0.0103853
0.0131976
0.00441891
0.0159921
0.00694242
0.0176988
0.0177613
0.0115947
0.00974348
0.0198367
-0.0123077
0.0135739
0.0168961
0.0193351
0.0188041
0.024926
0.0125551
0.0204073
0.0207146
0.0276731
0.0127749
0.00258548
-0.000257391
0.015966
0.0190841
0.0217544
0.0254431
0.0138931
0.100685
0.0226122
-0.0130259
0.200741
-0.0380749
0.0279606
0.0152297
0.0142207
0.0239635
0.017632
-0.116819
-0.030334
0.131682
0.165699
0.0282317
0.0196184
0.0161819
0.00505231
0.0172903
0.0149576
0.0139155
0.0263518
0.0207699
0.00363335
0.0126647
0.01691
0.0156568
0.0161479
0.00830596
0.0222763
0.014151
0.0253371
0.0161978
0.0199437
0.0152379
0.0231114
0.0075907
0.00911485
0.00892515
0.00217336
-0.0149245
-0.0573033
0.0510709
-0.0155537
-0.00879482
-0.0353466
0.0357991
-0.00143049
0.00835493
0.0248383
0.0367511
0.219788
0.0340418
0.00234546
SCALARS CoVolArea double 1
LOOKUP_TABLE default
451.262
534.102
749.389
795.623
1605.04
439.627
5246.93
1476.97
223.73
454.438
563.812
396.199
179.757
574.061
3303.16
1981.46
1217.72
1004.6
1081.57
1051.95
173.118
1133.82
567.919
2305.47
1172.97
465.146
513.033
1456.84
1056.27
2589.02
313.039
1217.36
1427.72
1352.61
1082.79
939.96
3594.98
590.617
660.848
2601.87
673.071
1958.17
376.502
3707.58
820.863
481.372
966.502
1250.5
480.357
712.68
620.022
937.66
640.357
512.068
2103.76
458.432
1039.88
1122.44
345.027
719.17
474.061
423.617
1229.03
1658.04
1351.78
1027.91
365.514
1297.76
1836.41
1173.7
756.254
817.514
141.144
4611.23
180.799
4999.46
1592.5
2591
211.976
667.853
638.645
828.631
794.28
655.156
914.504
738.939
931.832
1007.99
1993.42
1487.27
1113.55
2098.54
1344.85
2018.39
792.355
2627.58
1216.95
506.053
543.361
484.071
1201.91
821.694
692.226
684.221
861.615
1738.06
1430.82
408.855
1009.44
657.211
1140.62
723.913
2658.93
665.018
1178.85
1143.77
617.647
1085.56
1159.2
1124.69
1380.64
2151.71
1392.99
1146.03
1689.45
1117.94
1763.74
1061.08
1053.35
598.358
539.699
899.335
1428.31
1361.37
1092.79
594.77
425.052
910.875
959.332
1771.6
1171.76
712.842
1615.55
3881.93
900.48
2573.55
1036.64
1343.41
1103.91
895.13
679.676
938.265
543.072
1042.4
654.072
1034.47
624.637
803.908
857.782
1472.1
922.252
299.669
376.062
330.053
486.313
2173.47
1327.56
497.55
3057.06
2158.39
4403.43
482.143
518.975
448.816
550.769
478.567
469.77
1140.87
670.378
1156.04
508.976
580.128
572.827
2073.53
553.948
1164.35
537.914
523.947
572.88
2470.33
886.514
2341.03
894.685
794.873
2262.77
1291.03
553.265
688.31
1060.71
570.618
449.963
1833.43
1138.91
912.842
1073.96
1840.23
676.346
726.412
561.041
1268.81
606.154
735.512
2488.97
1132.62
1785.7
1642.24
1876.2
1338.38
690.027
674.162
642.236
357.852
754.931
393.627
537.411
751.31
515.619
600.619
290.268
566.034
379.038
733.382
1350.07
1456.92
1406.03
1092.53
1489.54
1150.9
1195.99
1620.56
1248.12
653.264
1105.09
1012.91
535.209
456.934
1393.5
862.951
249.273
551.458
552.123
1663.63
1295.78
1673.71
1451.45
1049.41
1416.25
1705.89
1290.34
1131.63
602.553
327.788
639.063
205.666
930.449
1063.81
1419.36
1617.13
1548.16
894.845
466.086
94.8412
320.205
379.601
194.177
3024.34
2367.39
321
1173.83
1478.71
492.353
40.3871
1590.69
728.614
1127.79
2780.19
2153.04
4503.36
4649.26
162.195
2234.69
673.345
440.688
319.383
2915.98
1894.47
909.587
1040.95
2223.35
677.278
647.323
549.127
513.949
516.094
514.987
1436.39
445.876
621.389
639.636
1758.28
827.17
1962.31
541.397
566.016
555.087
1975.36
811.282
1942.69
707.499
601.769
750.172
725.682
720.713
804.905
774.974
786.386
780.153
1349.22
1002.89
947.554
643.786
678.311
3082.68
2070.06
1589.26
756.69
1310.35
477.503
1075.42
1533.23
1524.26
1071.64
1534.44
1204.67
1583.83
844.933
1297.79
1501.87
1322.13
2148.3
3123.56
1549.84
4338.8
520.684
1818.05
1001.01
2937.19
1155.44
1988.93
1148.78
643.346
2540.69
978.602
1026.47
439.717
535.116
398.809
1363.08
826.212
2845.35
420.155
516.011
650.08
515.96
956.826
455.298
600.017
1907.4
1470.53
966.637
927.525
725.798
939.182
744.584
3541.61
1177.55
3397.2
706.173
672.024
884.098
976.199
756.067
992.374
743.308
878.02
677.443
1403.79
1741.72
1554.76
1374.76
1159.24
1404.82
1691.4
535.055
636.571
555.494
652.583
322.112
753.066
1287.75
319.786
898.39
305.431
1704.69
1199.55
985.023
470.756
1036.13
554.597
1661.49
1011.17
1762.73
2042.93
2404.01
1278.46
630.424
1386.43
1369.08
809.393
812.776
943.387
885.391
917.868
785.175
909.505
790.77
1069.83
1024.53
646.191
541.724
1142.19
853.162
1835.84
1189.66
955.712
1093.13
1367.39
926.665
1098.37
758.929
1066.75
1174.46
1494.67
1020.4
872.45
1252.17
2539.08
2509.72
5390.09
1136.68
1587.25
1178.5
1624.15
1003.72
1668.14
1297.3
1024.36
1319.66
1202.13
4759.52
1763.63
2001.62
805.534
1009.67
777.32
1105.12
1063.36
3392.36
679.045
628.702
1478.05
888.721
583.402
638.29
809.776
564.852
613.022
669.233
541.821
541.433
716.739
1390.73
3835.54
2029.72
3571.01
1021.83
1257.3
699.769
564.944
1144.4
866.996
1500.72
1361.11
1463.6
548.168
635.703
643.22
591.932
487.264
461.501
566.727
3731.05
1564.96
3895.71
603.187
951.977
564.88
575.914
786.817
869.423
462.278
878.18
1159.19
1388.57
1383.96
967.84
4371.02
707.221
2715.76
754.209
896.652
549.393
667.895
1372.64
3048.74
1510.78
2822.87
1393.26
2945.36
3740.5
1724.34
569.734
1394.78
504.802
3186.93
2109.22
1477.43
1814.6
1173.93
743.804
1290.01
3144.17
2507.92
1811.94
1880.43
1293.65
540.207
945.18
812.823
806.744
1107.55
1456.93
790.439
706.19
819.433
742.644
784.028
1514.92
1112.85
1001.18
2177.56
882.52
875.715
1345.11
631.482
865.906
944.82
877.688
954.708
1006.11
810.975
567.474
704.997
713.901
831.006
893.894
784.758
583.918
1207.91
614.174
479.754
576.635
3980.32
514.017
599.303
525.547
556.532
655.021
849.646
4098.78
561.724
757.765
639.628
779.148
747.545
2741.86
464.096
690.28
564.687
520.608
743.589
1277.97
999.061
821.798
759.209
777.058
1518.17
932.168
1064.86
840.094
822.252
833.264
969.165
892.614
674.292
1659.31
1561.51
1965.91
2818.04
1536.08
201.394
637.337
3480.65
3312.94
245.953
1349.77
246.722
201.71
216.855
523.645
154.772
1036.32
SCALARS SignedDistance double 1
LOOKUP_TABLE default
35.8577
37.3392
27.5877
24.8799
31.347
34.5047
38.2598
24.8804
38.8424
34.3416
39.004
37.276
103.435
32.5682
41.936
43.0667
36.7788
18.9388
23.8732
28.1258
53.9872
45.9981
31.2578
54.5301
26.0157
26.2792
34.1544
37.9028
27.586
35.059
35.3483
24.9039
35.6204
25.3744
22.3659
22.4638
36.9689
27.8545
29.0969
35.9975
32.0247
37.9472
53.9503
67.1279
44.8106
34.8942
39.1158
41.2816
35.9666
37.7879
33.0996
37.9729
35.6666
36.3377
42.645
34.1885
37.5589
40.2342
29.8902
36.743
30.7352
29.8357
22.7424
28.292
21.4378
23.9631
35.3555
25.028
28.9081
38.8834
39.1921
36.0705
71.8473
61.2402
56.46
96.734
39.0319
44.3152
40.8764
32.9971
35.7444
37.6939
36.133
34.2051
27.8737
28.9167
32.9109
28.2762
27.1575
28.6259
24.4648
36.6076
36.358
42.1621
37.4918
64.1146
36.2713
30.8971
29.7877
40.0232
23.413
26.6011
61.8412
29.7491
31.7823
24.2543
25.2664
34.3073
24.282
32.542
39.3868
53.8697
61.2153
32.2913
39.6824
29.854
33.2373
33.9842
18.0587
20.7523
24.691
31.668
25.7389
16.6196
33.0952
24.8431
32.4822
43.6482
25.1332
20.8664
23.1952
24.9632
38.5852
43.0099
39.0715
28.2348
33.0932
63.7807
39.5417
41.4837
34.1753
38.1568
34.044
48.5354
38.4296
36.6398
35.7267
26.1163
28.011
28.6438
31.6576
22.5708
35.3043
40.3555
28.9873
41.0833
27.2518
29.1188
25.5884
60.985
43.1153
37.5524
40.6647
46.6182
40.4606
106.416
56.365
75.5522
44.3429
51.9322
45.6496
36.9642
38.087
38.6708
35.8048
36.7996
32.8359
79.8243
41.8855
70.444
35.1101
35.8463
33.3516
39.5608
36.4892
38.596
32.5762
35.9253
36.2427
43.3483
38.3155
42.1903
39.1331
37.1574
40.4714
40.7642
34.5652
38.0862
37.7667
35.5978
36.587
42.5073
41.6587
41.1321
41.5252
42.7248
38.2072
38.821
38.0806
36.5475
37.9396
34.625
40.9586
38.3922
40.1168
40.9204
41.5755
35.7085
34.5768
32.8732
30.2945
29.7696
31.9507
28.4811
26.9632
36.0381
30.055
26.2819
27.5787
26.3507
29.8549
35.6805
24.367
21.3532
24.5337
20.6572
26.2548
25.2006
26.5798
26.2112
21.4739
38.3463
33.7693
26.1863
29.3729
32.1631
29.9099
26.3242
51.8841
29.8488
39.3486
26.0248
24.8219
28.3711
24.1715
24.7977
23.1893
27.1864
40.7699
44.6198
37.3891
42.2711
37.0761
55.1758
29.8726
45.4152
40.3752
23.1249
37.0548
34.6121
43.8272
64.8127
57.8364
64.6199
81.3574
42.9883
49.8921
83.5081
76.828
67.6717
58.1628
60.2315
39.6145
37.5491
99.9488
50.7055
40.791
39.0967
76.4097
66.4722
62.4365
74.2174
42.7264
37.8969
40.5503
44.466
42.5397
44.7183
51.7225
32.9624
34.4664
34.9778
35.4687
31.6199
34.6645
36.9176
35.5071
34.472
32.952
39.8661
36.2387
39.0195
31.712
35.384
34.0857
38.9905
36.6029
40.1221
31.3055
31.4966
29.8775
29.5189
27.5811
29.3232
26.6946
35.9999
33.4492
29.3526
31.4682
31.3802
32.2175
30.1289
27.3911
27.1482
25.1373
26.8698
26.7214
26.3346
23.6076
27.2846
26.8381
27.9268
26.7544
28.0563
37.8148
37.1557
38.2504
39.0667
35.6827
37.3173
36.925
49.2512
49.6508
36.1847
37.9221
34.9472
40.9418
41.1485
34.7832
32.5737
32.011
51.9326
38.4403
45.2418
33.6834
34.7777
35.9444
37.1447
36.512
35.3499
37.6289
39.5727
28.3869
30.5402
36.686
33.1544
30.541
24.5004
23.7464
27.4659
26.13
26.1413
23.7591
23.9906
68.6712
37.4487
36.4373
32.324
35.8811
49.388
27.8685
30.1196
25.6576
24.4136
25.1108
27.7945
24.5894
26.9153
26.4443
22.221
23.3425
23.4321
25.3948
31.7369
26.976
33.5745
26.278
35.8391
35.1137
30.4715
36.1113
37.0365
37.404
31.9665
38.3973
26.5125
38.0731
42.7153
34.5225
21.6739
28.7289
33.0346
31.575
54.0447
54.53
32.6377
34.2248
42.3473
26.4809
31.4958
27.1332
32.9062
33.3249
34.8125
27.8027
32.1524
28.6118
33.4664
33.2698
33.0898
27.9279
24.9189
25.1219
17.5856
17.1185
19.8283
24.2574
22.6884
22.4625
32.1364
27.2136
24.4442
59.0753
24.3493
28.494
34.5995
26.5316
59.7316
39.4321
23.5616
29.2963
19.9892
21.1459
18.1381
26.9302
21.9859
25.4566
60.7343
57.0777
54.0214
63.2168
26.3236
25.1413
38.2329
28.4643
36.8978
30.6889
36.4458
25.4637
22.16
32.8072
26.0841
23.3017
24.0326
24.6954
25.3771
22.8465
24.3945
23.2809
23.4208
26.3619
26.233
44.9964
48.3398
44.852
30.4627
41.176
31.2451
31.4181
35.6717
29.7309
36.3229
26.0678
34.9454
25.1311
29.403
26.143
23.6398
33.2567
30.5136
30.9648
61.9031
67.6329
66.7299
69.5675
48.4035
40.929
32.428
47.1523
56.5656
39.0487
31.8947
45.6487
34.502
34.4112
66.5944
51.2815
30.7997
32.9679
31.3604
32.4931
30.2607
33.1792
34.91
49.3145
39.3014
57.1085
38.0725
36.7824
39.1169
36.8525
39.5405
35.1105
35.2254
33.9201
34.5103
37.7146
36.3525
39.6254
41.4006
38.6828
36.6551
26.4239
24.3148
26.8576
24.1491
26.3449
31.2403
28.0903
30.5892
28.9511
25.7668
31.0381
26.4675
29.4484
29.4817
28.1111
26.6881
27.9752
25.5619
55.0786
27.1519
34.1623
37.3615
35.7017
24.0451
25.1979
22.7537
19.2388
21.3778
36.596
35.3013
35.5111
35.453
32.7706
28.897
33.2929
35.1275
66.1418
31.8569
41.8032
69.7688
72.8824
30.1495
33.4243
30.2696
26.6429
26.9845
64.8277
56.5752
66.1982
51.5799
35.1401
30.096
33.2801
33.9788
32.2958
29.403
30.237
28.7411
25.0252
36.0213
26.2317
30.16
35.1561
31.8736
24.0487
23.1462
24.4793
24.3817
27.4759
26.9377
26.4263
23.7738
36.119
45.7906
36.748
37.3377
52.2651
48.254
39.5054
39.652
45.1263
66.6906
37.7192
41.1835
38.7564
37.1063
37.6348
66.6473
45.9549
59.3496
