# vtk DataFile Version 4.2
vtk output
ASCII
DATASET POLYDATA
POINTS 642 double
-120.668 232.766 -18.933
118.798 241.903 -23.7996
-109.888 -206.639 38.1469
130.001 -213.882 38.4636
1.16933 -176.959 293.207
3.94547 82.7974 261.341
2.90255 -59.4078 -88.8534
3.11174 190.206 -175.505
146.637 69.1245 -119.964
147.954 -2.7646 203.765
-120.479 66.8082 -115.772
-121.826 2.13683 204.171
-145.351 147.745 37.7095
-80.4074 49.7529 255.387
-25.1017 128.996 107.376
38.9236 128.863 113.265
0.665281 278.787 -41.3787
82.1263 289.352 -93.4497
-67.4134 282.059 -90.6872
-102.832 113.897 -177.451
-173.304 187.675 -37.7279
-132.406 22.0026 22.2822
92.751 54.1956 262.023
111.399 115.888 45.6564
-106.364 -100.12 277.578
8.36765 -8.37405 334.868
-132.475 -130.737 -4.07554
-117.803 -136.742 192.731
5.57258 66.948 -212.939
-81.7582 18.2314 -157.494
162.87 191.453 -51.4458
116.552 115.875 -180.699
144.229 -137.82 198.678
124.523 -101.052 280.426
93.0717 -227.215 238.784
-81.5324 -223.778 237.801
-0.0558566 -221.191 34.533
-77.4129 -198.273 -44.3302
92.8373 -199.617 -45.0718
93.9825 16.3376 -159.629
150.789 -140.935 -5.91198
150.999 0.798995 59.0967
-141.366 193.587 -6.66833
-106.344 116.437 52.0685
-102.652 218.96 -7.22034
-108.181 25.7434 233.132
-95.1725 55.1094 202.936
-107.232 42.4989 176.184
-14.1608 99.832 222.15
-55.7682 78.9632 225.551
-39.8112 70.2489 265.757
-23.9156 241.632 1.68803
-47.3292 275.835 -35.8183
27.8703 102.697 221.24
6.25834 125.973 118.724
64.4292 280.288 -36.4416
38.1319 241.236 2.54534
95.5447 223.678 -8.69981
-42.0618 301.571 -62.3087
-87.3498 260.903 -55.744
95.4031 284.013 -62.7486
55.9895 302.336 -62.6914
-37.3348 241.367 -143.864
2.02684 286.001 -93.8123
46.5044 243.663 -146.249
-143.686 225.745 -66.9129
-157.071 212.601 -33.0607
-63.1281 149.826 -186.551
-93.6696 201.995 -129.844
-151.568 182.61 -57.0226
-142.576 177.014 -88.5438
-121.272 84.8308 -142.631
-173.388 185.383 -13.4523
-117.538 90.6097 -8.59051
-163.312 183.515 -34.1446
-138.614 166.536 44.9293
-123.638 -3.63302 137.688
81.7008 128.788 75.4024
136.886 210.877 -13.4846
53.6727 71.2172 268.541
66.6931 84.5095 229.021
134.709 29.5202 181.571
107.869 57.3072 213.055
123.993 26.1412 238.053
-41.5088 30.9886 300.241
5.20795 47.5481 302.227
-116.429 -52.3823 243.2
-94.7597 2.73704 274.382
4.91132 -44.8183 328.728
-45.5304 -33.8011 312.481
-71.7335 -142.828 299.943
-135.59 -50.6234 96.1403
-121.165 -72.5882 209.163
-110.874 -53.2802 -46.0711
-135.082 -73.8132 18.8387
-134.301 -149.589 116.704
-133.787 -134.916 28.6346
-127.167 -173.129 9.85306
-102.313 62.1354 -178.094
-110.602 42.3234 -133.644
4.51151 103.593 -217.837
-64.2712 89.3378 -208.292
-61.9489 -24.2356 -145.01
-57.8865 35.2953 -193.996
2.53292 20.1837 -189.566
103.848 209.538 -138.066
71.284 153.227 -187.13
155.685 220.832 -34.0601
148.504 234.618 -74.3195
146.508 82.2115 -145.798
151.954 170.683 -99.2101
158.519 140.011 -75.1177
158.242 -150.318 114.941
136.225 -185.713 217.104
104.33 -211.201 180.686
139.45 -52.4003 246.575
146.901 -128.322 241.265
147.458 -77.4692 208.555
62.4564 -210.699 292.087
116.853 -179.43 279.651
80.9879 -147.974 300.093
60.4114 -228.398 197.898
91.3138 -229.048 39.0695
-54.6006 -209.137 289.93
1.60683 -223.337 236.762
-76.6811 -228.344 40.0376
-54.6134 -227.004 194.96
-88.0357 -210.534 175.679
65.4886 -228.651 -11.2194
119.07 -221.445 -11.2626
-101.737 -215.491 -8.83136
-58.3681 -228.464 -11.1703
64.5214 -160.481 -62.9591
0.398128 -191.901 -41.4583
-56.4826 -159.165 -63.3243
134.75 -181.19 -30.6417
146.878 -186.427 7.6224
70.9842 -23.5932 -143.179
92.5932 -149.71 -64.2782
134.339 -41.0231 -46.429
131.546 -102.67 -42.4013
134.024 43.9834 -134.992
152.933 -140.386 28.8642
128.063 62.1203 -43.7022
151.315 -87.6764 21.9756
151.947 -53.281 100.851
148.596 2.6836 152.11
52.7689 -26.6704 323.617
107.284 1.08096 280.778
52.1025 29.4766 306.084
-115.41 -178.613 216.576
-105.114 -175.052 274.545
-120.302 -131.081 239.101
-79.0214 -143.572 -65.6075
-115.041 -172.8 -27.4833
-121.268 -93.641 -39.8506
119.309 62.6464 -180.819
65.3818 33.6577 -195.396
67.4326 88.9579 -212.057
151.419 78.2516 49.6799
158.829 174.6 -31.1397
155.903 191.784 -31.4169
-132.193 215.122 -10.9703
-123.719 209.656 -5.98709
-112.737 226.399 -11.5383
-141.02 135.303 57.7203
-133.812 186.003 -0.942186
-153.601 168.882 7.53565
-69.9567 199.053 10.0418
-111.765 198.293 -0.40947
-61.9 125.283 80.9797
-116.674 13.3933 218.055
-111.015 28.8248 209.578
-117.027 15.6048 197.257
-90.7448 52.2871 232.163
-101.809 42.069 221.935
-96.6866 37.7396 245.63
-124.942 100.358 113.935
-101.261 52.863 187.122
-117.606 85.1887 137.524
-5.30699 92.6638 242.115
-26.8229 84.8767 245.253
-14.1612 77.4187 264.798
-41.9859 94.0399 202.82
-35.1255 90.5492 225.135
-21.4089 103.878 202.938
-60.4605 61.0536 262.483
-49.6255 75.4468 246.287
-68.5051 65.9597 242.671
-84.3094 76.0068 155.592
-78.6133 67.0952 215.64
-66.8276 81.6662 185.13
-72.8794 241.247 -20.9266
-84.6155 251.103 -33.5591
-23.9725 209.557 27.2932
-51.1891 230.977 -4.83563
-35.7456 281.72 -36.5902
-37.2913 262.365 -22.5408
-23.0008 262.418 -17.9262
15.4173 93.4063 241.344
5.68434 102.289 223.067
30.5122 124.991 120.703
17.4313 106.92 204.668
36.4063 106.704 201.908
-3.41554 106.94 205.097
-11.3169 126.972 116.524
83.1093 264.824 -34.3904
75.4045 254.854 -24.0352
111.351 236.216 -19.31
32.0739 261.755 -18.5662
55.1683 264.691 -23.3046
49.3786 283.454 -37.5361
64.342 199.157 23.6782
57.2048 238.959 -4.04457
34.7741 208.555 31.0754
-5.06085 207.256 38.018
14.7768 205.556 39.7323
1.78802 239.491 10.667
-64.4303 276.895 -49.436
-111.948 248.626 -35.6038
-27.9457 295.87 -53.4797
-43.8428 294.434 -54.2781
-76.403 280.662 -71.1698
-55.7554 295.606 -64.2247
-54.4264 300.786 -71.0532
105.289 261.945 -50.9632
78.8272 288.861 -52.2795
71.0753 304.823 -71.9899
75.6074 299.782 -63.6638
91.3405 293.263 -71.5566
61.5189 295.68 -53.8165
35.8909 294.776 -55.4607
-18.2698 219.226 -162.627
2.86772 244.164 -149.872
24.8809 220.501 -163.977
-43.2372 291.731 -97.629
-23.0646 266.014 -120.471
-51.9231 264.23 -113.923
65.4892 267.506 -114.943
30.0362 265.975 -121.188
54.3488 292.84 -97.5745
2.29872 295.104 -62.1397
34.5206 303.356 -73.199
-27.1122 305.282 -73.62
-135.565 237.118 -38.3684
-139.613 225.261 -27.7296
-106.505 253.729 -77.9011
-122.429 247.447 -56.6678
-171.36 196.547 -34.121
-154.062 221.017 -43.2455
-165.032 203.37 -50.1923
-34.0511 171.435 -180.658
-48.6446 203.359 -165.412
-97.2308 157.199 -154.809
-74.058 179.401 -163.66
-86.2999 130.074 -186.961
-63.159 226.533 -142.984
-78.8169 241.048 -109.055
-124.641 106.173 -93.1166
-126.718 122.552 -100.345
-122.143 75.4108 -128.883
-162.16 185.648 -60.4428
-154.251 184.225 -78.3218
-172.301 187.081 -42.1757
-114.058 98.7948 -161.41
-123.053 133.511 -113.197
-115.64 139.269 -132.073
-127.035 220.517 -97.4153
-128.566 185.619 -109.704
-150.91 199.042 -79.4049
-149.907 205.552 -18.2268
-177.765 191.306 -30.1068
-171.789 190.823 -25.0205
-160.81 180.952 -7.69574
-162.718 172.304 4.93432
-119.871 72.9655 -92.5698
-137.754 151.148 -40.7178
-157.534 128.676 -25.1364
-163.531 143.085 -23.8549
-145.662 57.5396 12.7899
-169.885 187.236 -31.2047
-174.981 189.3 -30.3036
-116.187 19.8486 170.455
-121.816 2.65798 188.068
-146.597 151.385 30.6312
-106.442 82.8572 107.644
-129.975 -4.36829 80.4836
-119.449 36.4299 101.006
-139.808 70.2597 9.15854
-180.848 192.779 -27.366
-175.808 172.179 -38.8517
-173.374 185.248 -11.1865
125.362 216.561 -9.05176
134.62 222.355 -14.2785
58.9197 130.08 98.4996
104.834 196.111 5.33129
134.43 194.621 -9.56503
124.026 199.969 -4.85344
97.8275 126.012 54.7946
25.098 77.795 265.42
40.2544 87.2805 245.608
80.2265 69.2361 248.607
62.6283 77.8766 249.308
73.5205 64.2269 267.82
48.2421 95.6167 224.993
52.5334 101.316 204.875
143.971 12.3699 193.465
132.537 27.1432 210.367
139.28 8.99841 219.788
108.806 67.1826 167.743
122.555 45.4182 196.971
118.734 58.0794 149.964
109.726 42.2432 252.499
115.875 43.3492 228.654
102.667 55.589 240.414
75.4336 89.8843 196.731
88.7622 71.9682 223.353
94.3922 78.7805 182.187
-15.5153 61.5539 284.372
4.0338 69.0201 282.286
-64.6186 44.3146 277.547
-43.1781 53.7299 283.691
6.86645 19.2708 320.994
-15.8567 37.5037 304.468
-13.4653 11.674 322.027
-121.12 -20.4994 223.966
-114.356 1.00563 237.859
-98.6234 -46.8295 273.875
-107.77 -22.2666 257.572
-113.925 -78.1138 260.324
-102.904 17.2769 254.237
-89.991 28.6467 265.498
-1.56572 -116.012 297.922
-41.3836 -100.97 302.231
-49.1005 -159.475 300.366
-9.07835 -12.617 332.247
-17.349 -37.2112 325.515
8.4448 -18.059 340.12
-90.5424 -122.921 291.478
-65.6215 -87.5565 302.524
-82.0952 -72.1492 294.889
-70.7875 18.0216 289.405
-75.1451 -17.0923 295.762
-39.9165 2.2829 313.236
-122.402 -21.7081 174.024
-121.831 -29.7391 205.642
-136.42 -24.813 72.8743
-133.305 -26.1939 111.318
-120.612 -113.944 201.875
-122.055 -62.3881 159.628
-121.716 -94.367 147.117
-109.741 32.3058 -100.656
-111.825 -0.232282 -46.3031
-135.251 -106.844 6.59693
-132.195 -77.5419 1.86645
-129.085 -106.738 -13.0617
-129.649 -25.7496 23.4573
-135.351 -24.916 39.6268
-110.59 -190.271 64.2819
-125.561 -172.637 33.6526
-119.805 -192.384 20.1879
-116.724 -148.361 104.916
-124.083 -153.426 57.0754
-110.767 -150.143 165.227
-133.337 -151.643 2.08869
-134.199 -152.018 20.1146
-134.977 -134.164 12.937
-135.954 -60.0256 44.3678
-135.434 -107.913 20.2269
-133.465 -93.3467 57.7791
-118.183 63.9222 -142.609
-115.215 53.287 -126.225
-104.154 85.3758 -180.382
-113.586 73.2138 -163.327
-103.767 35.9642 -147.066
-109.198 53.244 -158.083
-96.2376 43.1439 -170.197
2.93665 140.299 -200.22
-36.1733 127.082 -206.143
-31.6757 77.0874 -213.345
-33.1731 97.0967 -215.455
6.44493 85.5896 -220.878
-67.3378 114.395 -205.951
-87.2515 102.816 -198.528
-65.5404 -35.3354 -119.377
-31.9875 9.82704 -174.905
3.10118 7.0867 -170.915
-72.7505 26.9604 -177.232
-53.5086 16.3467 -175.549
-56.2924 -9.42737 -151.991
2.85787 36.7457 -203.224
-32.1773 25.6707 -194.579
-34.0046 44.5474 -206.389
-88.4145 73.7114 -198.021
[...]
POINT_DATA 642
SCALARS Mean_Curvature double 1
LOOKUP_TABLE default
0.0342975
0.0436447
0.0266227
0.0272117
-0.0176376
0.0178485
-0.00934928
0.0010754
0.0309135
0.028074
0.0129303
0.0269115
-0.666758
0.016807
0.00211447
0.00754565
-0.0116505
0.0321012
0.0241187
0.0172042
-0.132508
-0.100136
0.0206476
-0.00364937
0.017303
0.0119824
0.013679
0.00787888
-0.00269496
0.00713048
0.0171426
0.014058
0.00981183
0.0159922
0.017697
0.0196701
-0.00445229
0.0248851
0.0188213
0.0087531
0.00886321
-0.0017344
0.00893795
-0.0280216
0.00414797
0.0173434
0.0275126
-0.00231016
0.015448
0.0037598
0.0180255
0.0108103
0.0156287
0.0207466
-0.00528942
0.0258431
0.0115366
-0.00497715
0.0412873
-0.0451705
0.0502599
0.0424396
0.0135268
-0.00488373
0.0154639
0.0203207
0.0238314
0.00884099
-0.000455756
-0.0235419
-0.0256288
0.0175217
0.390432
-0.0246092
0.191416
-0.0351069
-0.00161164
0.00345557
0.0228635
0.0155684
0.006841
0.00440162
0.00461213
0.00929776
0.0133591
0.0198573
0.00343828
0.0190031
0.00765456
0.00326135
0.0168655
0.00691067
-0.000653753
-0.0203775
0.0112038
0.0496883
0.00616885
0.0127324
0.0244359
0.00401405
0.0112301
0.0113
-0.129861
0.0169411
0.0118562
0.00698573
0.00440229
0.0504855
0.0288821
0.029743
0.0190318
0.0876948
0.0541015
0.0261833
0.0217934
0.00684163
0.01235
0.000974438
0.0330068
0.0197959
0.0108267
0.00586472
0.0108763
0.0301878
-0.0164839
0.0210421
0.00487247
0.0260733
0.0238363
0.0338712
0.0318716
0.0214218
0.0157698
-0.0142548
0.0200084
0.02485
0.0158104
-0.125095
0.00823906
0.00287448
0.0149148
0.0191795
0.000946748
-0.0140062
-0.00791108
-0.000203058
0.0135511
0.00959636
0.00960751
0.0110153
0.017105
0.0263237
0.00579058
0.00334869
0.0167666
-0.0969143
0.022165
0.0169076
0.0108729
0.101663
-0.0395949
0.00908885
0.0348042
0.0198041
0.0264209
-0.0397946
-0.00930449
-0.0670397
-0.00684865
0.000772676
-0.00283723
0.0162353
0.00958838
0.00336828
0.0176634
0.0169432
0.0191189
0.055948
-0.0289464
0.127514
0.0148402
0.00752736
0.00901521
0.00724859
0.0101414
0.0143311
0.016694
0.0122177
0.0132747
-0.0287044
0.00927886
0.00665448
-0.00466772
-0.00938538
0.00139459
-0.00265259
0.0249377
0.000871648
0.00958096
0.00880768
0.0152634
-0.00287164
0.00246832
0.0172273
0.0119472
0.00504779
0.010921
-0.0025801
-0.00186314
0.000797877
0.0099184
0.0168024
-0.002632
-0.000196038
0.00648314
0.0147854
0.00854579
0.013744
0.0246656
0.054504
0.0404206
0.0194406
0.0460468
0.0201585
0.0614723
-0.0343328
0.019006
0.0573129
0.0419721
0.0644291
0.0167281
0.0176081
0.00862538
0.0150648
0.0101094
0.0290866
0.00417322
0.00838753
0.00864161
0.000761778
0.0210015
-0.0356717
0.0439617
0.053986
0.0330578
0.00697094
0.0148029
0.0368306
0.05956
0.0373826
0.0347219
-0.000876716
0.0167523
0.00723011
0.00888236
0.0182082
0.0152418
-0.00608623
-0.000275358
0.00715807
0.0147909
-0.127875
0.0545898
0.325893
0.013229
0.00121052
0.0044024
0.0183599
0.0140726
0.0254779
0.0146738
0.154946
-0.0191887
-0.0336547
0.368819
0.00217651
-0.0223889
0.159984
-0.0828998
-0.0852679
-0.0426043
0.743956
0.00187896
0.0144724
0.116807
-0.0422868
8.2204e-05
0.00202316
0.00282035
0.221608
0.0370581
-0.0594615
0.0253036
0.0486143
0.00470692
-0.00395303
0.00775931
0.017099
-0.00405568
0.00640971
0.00862049
0.0111481
0.00991074
0.0229195
0.0152557
0.0138181
0.0182872
0.0110712
0.0119429
0.00517256
0.00967499
-0.00142577
0.0223634
0.00738664
0.0156396
0.0069455
0.00708331
0.00670407
0.00757231
0.0251565
0.0153975
0.0186578
0.0133803
0.00712009
0.0180456
0.0174346
0.0137373
0.00350489
0.0108668
0.0167491
0.0159668
0.0175739
-0.0056737
-0.00172073
0.00306386
0.0232639
0.0113458
0.0588798
0.0134753
0.0148207
0.0124403
0.0133681
0.0120173
0.0115865
0.000615971
0.00142203
0.0128883
0.0113029
0.00284738
-0.0030745
-0.000696804
-0.010391
-0.00279234
0.0196988
0.00718811
0.00260389
-0.00996785
0.032745
0.00148025
0.0255356
0.0113748
-0.00966726
-0.0402174
-0.0686419
0.0290053
0.0242212
0.014411
0.00374891
0.00513687
0.00163209
0.0253398
0.0104096
0.01618
0.0231
-0.00453007
0.0192227
0.0160604
0.001631
0.0102964
0.00577219
0.0191788
0.0326933
0.0240855
0.0276448
-0.0292396
-0.000197893
-0.00104837
0.0170579
0.01354
-0.109144
0.0146711
0.02119
0.0178876
0.0297187
0.0243055
0.0241326
0.0102762
-0.000179983
-0.00226757
0.0133646
0.0167736
0.0139608
0.00719318
0.0231814
0.0706877
0.0254712
0.022542
0.042414
0.00556063
0.00233281
0.0465529
0.0203372
-0.0468786
-0.000490721
0.00544896
0.0150457
0.0255448
-0.00714541
0.0253194
0.019518
0.0270238
0.00306266
0.00402307
-0.0139085
0.000580041
0.0198104
0.0186494
-0.0445898
0.0237572
0.0121163
0.0309097
0.0221873
0.0112851
0.00406186
0.0254769
0.0200618
0.00277132
0.00174421
0.00176543
0.0063182
0.0328608
0.0211284
0.00311139
0.0247046
0.0315471
0.0271033
0.00804047
0.016303
0.0161151
0.0212706
0.0288579
0.0169365
0.0498621
0.0245765
0.0204259
0.0202075
0.00909759
-0.0118723
-0.0111858
0.0425717
-0.0106798
0.0225174
0.0234936
0.0284936
0.0171681
0.020179
0.019871
0.0583034
-0.0103891
-0.0105858
0.000209093
0.0112262
0.0256253
0.0310131
0.0259154
0.0429295
0.0488532
-0.013508
0.0235627
0.0265186
0.0157556
0.00175388
0.0319585
0.0304934
0.0176548
0.0282103
0.0321755
0.0268284
0.0351586
0.0292216
0.00891661
0.0161016
-0.0130544
-0.0181677
-0.010808
0.0154514
0.0210397
0.00776679
0.0173499
0.0267349
0.0123246
-0.00418587
0.0286052
0.0188025
0.0398756
0.0317161
0.0242128
0.0278184
0.00359431
0.0354519
0.0175434
-0.0261556
-0.0764928
-0.0388732
-0.146176
-0.0804849
0.00332569
0.0311578
0.00276444
-0.076513
0.0305367
0.0255732
0.00644946
0.00635962
0.00784975
0.124265
-0.0241756
0.0216051
0.00435682
0.014549
0.058914
0.0468294
-0.00723327
-0.0559961
-0.0118264
0.00502519
-0.00217676
0.00264219
0.00255975
0.00654316
0.00809406
0.0157577
9.77583e-05
0.021278
0.00285208
-0.000218506
-0.00046343
-0.00202089
0.0301827
0.0164372
4.08995e-05
-0.000303236
-0.00280539
0.00969588
0.00292292
0.0209777
0.0313718
0.00970101
0.0194394
0.0141352
0.0101485
0.0144787
0.00413264
0.0166301
0.00638012
0.0187107
0.019365
0.0116823
0.00965328
0.0215133
-0.0150719
0.0136986
0.0161648
0.0200545
0.018996
0.025417
0.0138073
0.0215303
0.0219761
0.029567
0.0122914
0.00261466
-0.00052823
0.0153683
0.0203491
0.0226528
0.0258062
0.0122367
-0.0907625
0.0250056
-0.00453657
-0.102868
-0.0379721
0.0278897
0.0148606
0.0146632
0.0262738
0.0184022
-0.139535
-0.0352665
-0.181393
-0.161017
0.00551676
0.0212059
0.0181517
0.00310332
0.0194092
0.0156479
0.014543
0.0280657
0.0221027
0.00219565
0.0136989
0.0183684
0.0169141
0.0173542
0.00849488
0.0237877
0.0144713
0.0274688
0.0155307
0.0211407
0.0157828
0.0248751
0.00790905
-0.0244281
0.0104839
0.00149707
-0.0215002
0.0278289
0.0656288
-0.0221277
-0.0111202
-0.0369129
0.0365555
-0.00253173
0.00745352
0.0210825
0.042005
0.224232
0.0426415
0.0171883
SCALARS CoVolArea double 1
LOOKUP_TABLE default
405.824
497.671
710.818
747.496
1600.72
412.774
5554.6
1458.64
203.528
418.35
553.323
368.395
182.527
532.987
3263.89
1898.9
1196.63
943.995
1020.46
999.663
134.911
1348.83
523.562
2362.22
1115.06
425.391
479.892
1467.19
1017.92
2627.01
274.604
1168.3
1429.4
1295.3
1013.42
876.622
3647.48
542.784
613.005
2664.33
634.163
1948.98
364.924
3775.13
818.716
444.852
889.824
1213.05
450.11
689.628
583.317
902.665
615.637
479.147
2086.13
426.67
998.102
1136.72
296.033
685.312
420.649
365.487
1184.04
1597.01
1308.01
951.968
328.665
1250.15
1800.85
1202.18
738.336
770.708
107.88
4846.07
293.259
4833.93
1577.98
2493.77
188.729
631.95
610.105
808.419
768.75
619.645
868.173
700.878
886.77
956.593
1953.43
1435.69
1066.27
2059.09
1340.86
2041.01
755.357
2589.23
1208.59
468.721
496.333
449.528
1150.5
770.965
726.01
639.159
825.176
1698.16
1390.78
351.477
946.336
601.619
1087.07
595.412
2699.79
612.387
1105.21
1095.78
572.901
1073.2
1092.97
1058.73
1344.53
2157.34
1334.1
1081.17
1627.66
1036.94
1749.17
988.602
994.134
545.256
489.664
844.767
1397.81
1305.63
1057.78
544.578
391.114
745.64
903.316
1702.65
1130
667.516
1629.68
3975.29
876.858
2550.45
1002.1
1287.31
1055.78
848.584
634.675
871.29
511.319
968.507
609.264
1091.63
576.133
757.252
806.201
1438.52
937.776
274.216
337.101
311.488
452.005
2020.69
1321.83
488.879
3098.19
2233.89
4503
446.099
502.687
433.175
514.532
446.201
432.247
1059.71
629.304
990.292
477.633
549.172
539.402
2037.95
526.835
1108.61
499.967
493.542
537.946
2305.45
867.408
2395.96
887.896
755.455
2246.81
1303.23
521.073
671.024
1028.4
538.595
419.513
1791.89
1118.2
858.608
1036.78
1765.56
653.01
717.396
532.97
1239.48
579.854
708.708
2496.53
1130.04
1739.14
1573.26
1823.67
1283.39
653.161
626.506
603.901
323.839
692.148
354.822
466.578
722.577
486.546
524.347
246.99
500.09
344.589
697.459
1311.46
1415.09
1367.5
1025.67
1454.07
1111.57
1154.23
1588.14
1181.83
589.066
1013
927.161
488.235
416.395
1325.96
800.467
206.735
492.193
513.294
1635.69
1248.24
1623.78
1407.65
998.406
1381.64
1675.17
1309.54
1107.6
569.09
314.792
645.348
159.551
886.382
1021.53
1369.49
1555.98
1491.43
841.928
447.127
66.0782
279.688
355.543
170.431
3138.01
2495.74
753.588
1391.44
1752.32
534.386
23.5441
1615.56
704.224
1086.02
2768.27
2180.74
4543.68
4728.15
150.391
2199.93
560.252
417.852
272.728
2845.9
1867.61
899.104
986.871
2193.1
645.12
614.391
516.378
482.655
476.808
482.74
1378.13
413.947
591.173
599.764
1742.14
803.765
1979.29
502.492
537.157
522.063
1916.88
782.55
1892.49
668.676
565.461
704.117
684.278
685.106
765.516
730.468
740.986
735.3
1294.77
955.349
895.421
601.114
632.175
3115.48
2040.27
1573.39
707.243
1252.3
427.232
1022.47
1476.95
1468.33
1017.32
1481.13
1153.02
1568.62
819.828
1262.74
1469.24
1319.63
2137.01
3140.1
1620.74
4475.62
489.058
1820
953.378
3018.68
1136.09
1902.29
1098.62
606.827
2571.43
998.629
1060.55
400.494
504.009
366.902
1321.55
794.139
2841
384.218
509.065
600.498
471.545
904.512
418.322
562.1
1884.62
1428.52
923.009
876.48
679.014
888.642
690.337
3625.09
1156.33
3508.98
676.051
643.868
898.756
929.937
713.477
944.588
685.117
822.216
624.79
1360.22
1716.55
1517.57
1333.13
1109.88
1357.04
1648.74
477.943
570.125
494.87
588.314
275.409
685.001
1234.57
278.052
787.992
262.37
1664.33
1143.34
936.276
416.515
923.023
506.246
1605.08
937.643
1709.19
1987.28
2396.26
1190.76
607.137
1388.15
1438.44
756.141
777.724
874.508
834.169
876.128
750.807
849.173
746.781
1021.79
1012.13
624.725
518.109
1079.64
803.546
1827.87
1117.12
894.292
1028.46
1322.96
877.968
1038.39
698.914
991.671
1093.57
1370.44
949.436
815.986
1175.63
2557.77
2494.36
5585
1073.13
1516.72
1111.76
1572.77
940.018
1616.05
1230.34
954.834
1182.93
1132.98
4924.22
1689.45
1997.65
749.32
909.903
718.835
1025.66
985.413
3460.1
631.547
574.298
1424.06
846.81
534.164
590.215
756.045
516.775
563.384
615.965
493.991
494.101
673.704
1339.72
3955.12
2079.72
3680.26
969.23
1218.37
663.983
524.995
1105.78
816.88
1430.34
1300.25
1399.49
493.115
581.207
587.657
537.1
456.436
417.063
529.539
3730.42
1421.66
3963.88
509.52
886.336
507.728
530.3
774.27
875.635
434.445
819.352
1084.57
1327.28
1261.13
850.6
4382.27
657.781
2732.85
715.421
836.688
509.706
650.367
1449.91
3113.19
1527.35
2828.11
1363.64
2971.36
3825.52
1691.24
535.135
1379.9
472.408
3200.32
2101.67
1454.93
1783.04
1129.69
708.536
1251.99
3150.87
2484.48
1755.41
1835.84
1236.69
491.434
902.17
763.293
763.665
1064.62
1401.67
753.343
664.032
782.788
701.27
733.864
1457.98
1060.06
946.488
2109.37
824.076
836.824
1325.75
611.984
810.656
886.091
823.791
890.342
936.841
777.949
553.111
689.501
673.641
773.527
827.174
724.189
542.837
1109.77
570.213
425.743
496.836
3954.15
469.739
560.075
484.833
511.358
604.651
902.114
4203.34
594.667
717.554
596.94
731.531
710.451
2759.44
419.919
650.893
526.522
473.308
689.503
1206.59
953.589
778.507
700.238
742.994
1479.09
877.2
1017.48
788.475
777.493
778.142
913.87
833.467
641.567
1646.99
1509.31
1904.05
2798.49
1555.83
172.963
633.259
3651.3
3383.3
206.325
1319.79
235.439
173.687
186.276
496.281
119.861
977.592
SCALARS SignedDistance double 1
LOOKUP_TABLE default
31.0819
32.1182
23.6959
21.1912
28.1878
29.5597
32.8034
21.1252
33.2783
29.6645
33.4167
31.8851
100.272
27.6166
35.9487
37.2181
32.6345
15.4828
21.3623
24.7591
53.1251
42.3633
26.7381
49.2303
22.3201
22.7439
29.0173
32.8093
23.8252
30.4309
30.4793
21.5246
30.9367
21.577
19.5544
18.9699
33.5602
24.0762
25.2684
31.4503
27.6215
32.679
49.0718
63.4544
39.6959
30.249
33.6113
35.8338
30.8171
32.3348
28.2019
32.4051
30.9149
31.68
36.672
29.3428
32.1824
35.0528
25.6187
32.2237
26.1883
25.5693
19.395
25.4301
18.1261
20.6781
32.0317
21.5585
25.4284
33.4935
34.5136
31.2807
68.5003
57.586
49.0221
96.5725
33.6974
38.9007
35.006
28.3457
30.7017
32.4329
30.8753
29.645
23.6033
24.5755
28.2125
23.9157
23.8522
24.9215
21.1378
31.5091
31.2245
37.3253
32.1993
62.657
31.0681
26.3482
25.7123
34.5281
19.8582
23.1283
60.445
25.5663
27.2008
21.0048
21.6857
30.1368
20.6755
28.3121
35.3781
50.7657
61.1882
27.8714
35.6625
25.4916
28.6035
29.1865
15.2808
17.7344
21.2976
27.4414
22.1791
13.8091
30.1136
21.444
28.1808
39.8372
21.7506
17.706
19.5587
21.5663
33.7854
39.8098
34.1662
23.8855
28.5431
57.9645
35.0448
36.606
29.6612
33.1878
29.4784
43.0426
33.1262
31.7703
30.4499
22.7537
23.8527
24.7666
27.4216
19.4236
30.3329
36.2899
24.911
39.1406
23.2824
25.1968
22.2294
57.8555
38.5346
32.0167
36.3172
41.4461
35.3754
101.516
51.3459
74.7293
38.3666
45.9095
40.1145
31.81
32.7415
33.2238
30.581
31.5763
27.8735
73.7845
36.9085
64.9203
30.2872
30.6831
28.4994
34.1134
30.9571
33.1023
27.8873
30.8249
31.3964
37.9114
32.6131
36.3558
33.5453
31.8499
34.9289
35.3501
29.6957
32.8242
32.8235
30.6933
31.2728
36.5158
36.0859
35.8237
36.0846
36.7536
33.1341
33.6236
32.5813
31.5987
32.9
29.7066
35.3284
32.989
34.6335
35.4414
35.9712
30.5017
30.2976
28.6606
25.8435
25.4822
29.3151
24.0217
23.1816
32.3895
25.3191
23.1385
23.6447
22.9233
25.4495
31.378
21.0242
18.0237
21.4085
17.5508
23.3579
21.5977
23.2617
23.286
18.385
34.363
30.4844
22.8038
24.9215
27.7102
27.4533
22.5083
50.0042
26.2484
36.7029
22.4759
21.8221
24.8784
20.7976
21.171
19.8365
24.0543
35.5873
40.0442
32.2122
40.8178
36.8588
51.4371
25.4468
40.677
36.0297
19.5698
33.1557
31.0362
40.4504
60.3688
56.9944
63.3939
78.5374
37.4301
45.6198
77.7921
75.5927
67.5338
53.2653
57.6409
34.1487
31.9826
94.7627
47.2419
35.326
33.4519
70.2657
62.5098
62.0258
68.8165
37.632
32.9678
34.7964
38.3999
36.572
39.0754
46.6713
28.16
29.3981
29.9875
30.4663
26.8942
29.5389
31.7372
30.4203
29.3441
28.0468
34.2111
30.9383
33.3657
26.9465
30.3597
29.1686
33.74
31.5489
34.7175
26.7153
26.8717
25.4579
25.0193
23.5476
25.1749
22.6494
31.1374
28.647
25.2694
27.1723
26.9993
27.575
25.6061
23.7036
23.441
21.5959
23.3823
23.2908
22.8282
20.1227
23.7533
22.8136
23.7764
22.9283
24.2561
32.4952
31.9106
32.7394
33.7367
30.6528
32.1069
31.7771
43.8677
44.4913
31.1581
32.627
29.9522
35.6278
35.8268
30.4613
27.9323
27.5996
46.9978
33.5948
41.4097
29.1573
30.0545
30.8887
31.8988
31.3615
30.3365
32.4186
34.1834
24.6354
25.926
32.0228
28.51
25.854
20.9578
20.6699
23.687
22.6745
22.3988
20.7283
20.4474
67.665
33.0836
31.6106
28.1549
31.3722
46.7422
23.6319
25.8941
21.5591
20.8885
21.2102
23.5096
21.4029
23.6511
23.1138
18.8723
19.6931
20.2159
21.5367
27.113
22.7969
29.1944
22.2752
30.6997
32.3615
28.0469
31.4279
32.5042
32.1583
28.049
34.1198
22.6327
32.8602
38.3606
29.9011
18.3744
24.8986
29.5739
27.44
50.2916
51.5702
28.0817
29.7315
39.0018
22.656
27.2575
23.4603
28.5146
28.7146
29.9043
24.5545
27.8494
24.6997
28.7511
28.5713
28.4294
24.5792
21.539
21.6112
14.5997
14.3756
17.5158
20.7486
19.2879
18.9478
27.7803
24.0669
20.8567
56.366
20.7315
24.6574
30.5768
22.8541
56.6298
34.6294
20.4494
26.866
17.043
18.1218
15.5216
23.6987
19.0394
21.6846
58.0038
53.5173
49.397
60.6917
22.6838
21.505
34.5779
24.7068
32.817
26.5469
33.5778
22.0424
18.7254
29.1853
22.3895
19.6315
20.8517
21.1061
21.5783
19.4984
20.8959
20.0437
19.7733
22.6508
22.5341
39.1401
43.1753
38.9049
26.4114
36.7197
26.6033
26.7766
30.983
25.7655
33.2299
22.2775
31.2755
22.4764
25.9718
22.5479
20.0474
28.7214
26.6962
26.3387
60.2457
61.2938
66.7097
66.7494
44.6551
36.253
28.4242
41.2319
51.9342
33.7857
27.3219
39.9435
29.9785
30.0386
60.8884
47.4777
26.5085
28.3987
26.724
28.1666
26.0346
28.6689
31.9216
46.1541
33.7454
52.5494
32.9144
31.7096
33.8527
31.8159
34.4662
30.1515
30.3239
29.1673
29.6401
32.6076
31.2569
34.6038
35.729
33.3663
31.5548
22.9032
20.6283
23.2044
20.664
22.614
26.7616
23.7686
26.7053
24.9419
21.8884
26.5248
22.5095
25.3375
25.3113
23.7198
23.08
24.2804
21.733
51.2102
23.6095
29.9912
32.6191
30.688
20.9258
21.5867
19.5031
16.4153
18.9734
31.4782
30.3172
30.4961
30.5765
28.6228
24.7614
29.0432
30.234
61.0769
27.9223
37.2838
68.0983
72.7425
26.5778
28.8499
25.7363
22.5632
22.9319
63.2732
55.4406
62.7708
48.0162
30.3228
25.7638
28.4016
29.2903
27.6166
24.865
25.7578
24.7551
21.3968
31.3708
22.7821
25.9057
30.6773
27.4948
20.7712
19.672
21.2425
21.0239
23.6381
22.9397
22.9747
20.2277
30.8744
41.7676
31.517
31.8618
47.1879
47.0291
33.878
34.0615
39.3379
65.8061
32.3298
35.9467
33.1024
31.643
32.1528
62.7712
41.4733
55.3038
