# vtk DataFile Version 4.2
vtk output
ASCII
DATASET POLYDATA
POINTS 642 double
-124.028 239.345 -13.2397
122.093 249.168 -17.2445
-116.17 -211.345 39.5604
134.849 -218.929 39.918
1.26141 -176.2 301.149
3.67936 91.382 266.815
3.10549 -65.6852 -98.1674
2.90888 193.152 -182.233
157.409 66.2573 -118.421
157.746 -0.764468 205.378
-131.529 64.2479 -115.869
-132.633 4.0437 205.066
-153.101 154.298 43.7956
-86.3157 55.673 259.957
-29.0542 138.878 113.31
41.4359 139.526 119.353
0.883146 286.534 -34.3911
84.6753 293.025 -96.6758
-70.6514 286.008 -93.8127
-109.136 115.89 -182.035
-177.685 190.423 -39.2906
-141.481 22.6085 28.1001
98.1062 60.058 266.41
121.242 122.217 52.9663
-112.062 -99.7337 282.546
7.77683 -5.19843 341.966
-142.129 -131.115 -7.03176
-128.621 -137.946 191.887
5.2454 64.359 -220.689
-87.4971 12.7398 -162.288
173.071 191.65 -51.0745
121.638 118.051 -185.357
154.198 -139.445 197.586
129.344 -100.702 285.973
95.5365 -233.079 239.721
-84.9748 -229.346 238.657
0.0578922 -229.925 36.8429
-79.5976 -202.764 -50.7205
94.0045 -204.472 -51.9171
99.2536 10.3452 -164.639
159.593 -141.541 -9.30005
162.037 2.42935 58.5418
-146.551 198.979 3.20453
-107.624 126.207 59.684
-104.264 225.198 3.27659
-117.045 29.7792 236.204
-103.217 62.7126 205.597
-118.317 45.7014 178.05
-16.6546 109.41 225.934
-61.2815 88.2183 228.523
-42.8717 77.6565 270.949
-27.0353 248.74 9.64065
-50.6736 282.615 -28.8683
29.2156 112.388 225.084
6.17893 137.044 124.766
66.7184 286.948 -29.4838
40.349 248.585 10.4004
98.3684 230.173 0.824007
-43.585 309.379 -59.0352
-92.5864 269.725 -52.8734
100.3 289.673 -59.251
56.0802 310.259 -59.3501
-39.053 245.622 -148.804
2.06592 291.67 -98.2856
47.6452 247.667 -150.902
-148.63 229.986 -69.2651
-162.534 217.416 -29.9573
-65.4133 153.229 -192.649
-98.2913 205.653 -135.288
-159.921 175.93 -59.5772
-151.171 176.325 -93.7112
-131.238 84.7198 -145.344
-178.665 187.924 -10.2413
-128.014 86.7744 -14.4683
-175.79 175.373 -33.7167
-137.726 168.268 46.354
-134.819 -1.33915 138.817
88.8983 136.496 81.3979
143.557 212.862 -4.19535
55.8921 78.8191 273.969
71.6154 93.2303 232.447
144.193 35.232 182.529
115.479 64.5321 215.173
132.356 30.5337 241.448
-44.65 34.7412 306.855
4.95689 52.7811 308.995
-125.608 -51.6292 246.27
-100.901 4.35324 279.637
4.33159 -47.4221 335.619
-49.2284 -33.7126 319.764
-73.5418 -143.109 306.918
-146.284 -51.2678 97.3091
-131.943 -72.8605 209.282
-121.808 -52.6077 -48.2382
-146.077 -73.2213 17.4874
-139.818 -145.568 117.211
-144.289 -135.863 30.0495
-135.768 -176.192 9.29434
-108.901 59.6548 -183.068
-120.95 38.4101 -136.347
4.23026 105.572 -224.478
-66.5254 89.2915 -215.595
-65.2614 -30.7046 -148.32
-60.543 30.4432 -200.481
2.46056 13.7528 -195.95
107.788 212.732 -142.846
73.026 156.459 -193.582
163.299 224.803 -30.6448
153.59 238.913 -76.0389
155.002 82.22 -149.207
160.396 171.26 -103.504
161.987 135.596 -70.1623
158.586 -150.013 114.932
144.369 -189.816 216.026
110.2 -218.181 179.301
147.361 -51.6534 250.319
156.593 -128.593 242.516
157.53 -77.7031 208.766
62.6068 -213.831 296.014
120.905 -181.4 283.775
82.3423 -148.181 307.214
60.0959 -236.829 195.239
91.8836 -236.492 40.1357
-55.2592 -212.183 293.664
1.64705 -231.259 238.855
-78.1748 -235.452 41.0111
-54.3483 -235.544 192.453
-95.131 -216.958 174.381
65.3041 -235.705 -13.421
121.939 -226.507 -13.3956
-105.883 -220.357 -11.0252
-58.4776 -235.549 -13.2168
63.2872 -164.178 -72.9687
0.559113 -198.023 -49.0533
-55.3233 -162.895 -73.5314
140.815 -183.269 -35.7171
156.407 -188.129 7.00089
76.725 -33.8756 -149.609
96.5408 -152.451 -73.6276
144.767 -41.6691 -49.5556
136.434 -105.11 -50.3033
142.603 39.1223 -138.278
162.526 -141.597 30.5378
140.842 61.1459 -44.5941
162.441 -86.4766 20.7523
162.586 -54.1526 101.759
159.009 4.37534 152.446
55.9744 -27.0855 330.205
112.989 2.95593 286.406
54.7123 33.6163 312.914
-123.969 -181.916 216.068
-110.01 -176.829 278.361
-130.726 -131.233 239.802
-83.7509 -146.626 -74.0911
-121.798 -175.334 -32.016
-123.438 -96.3777 -46.5734
124.697 60.0666 -186.061
67.4387 28.9964 -202.099
69.5476 89.0043 -219.234
161.535 81.3988 47.8201
168.267 169.739 -31.2701
164.582 193.275 -25.2707
-136.649 220.243 -3.9094
-126.973 214.749 4.77053
-114.606 232.823 -3.07501
-148.416 139.232 61.6162
-137.323 192.16 9.59754
-154.996 174.006 11.9204
-73.3744 206.597 19.6562
-115.316 204.884 11.923
-67.4773 134.12 87.37
-126.762 16.6297 220.183
-121.1 33.5516 210.959
-127.724 19.5969 197.783
-97.9689 59.209 235.189
-110.572 47.9088 224.257
-103.962 42.687 249.514
-133.586 102.446 117.152
-111.545 56.1758 190.266
-128.112 83.5023 139.326
-6.74605 101.835 246.829
-29.8185 93.9276 249.88
-16.1178 85.3851 270.256
-47.3201 103.695 205.924
-39.2958 99.8341 228.712
-24.833 114.025 205.965
-65.0871 67.7346 267.377
-54.0248 84.1451 250.31
-74.1881 74.0888 246.328
-90.2322 85.6331 160.412
-85.3309 75.8445 218.1
-73.9603 91.3539 188.228
-75.5087 248.636 -12.6037
-86.9425 258.494 -25.9203
-28.157 217.003 35.5319
-54.8865 238.035 4.07613
-36.7607 288.954 -29.8715
-40.3636 269.223 -14.1742
-23.9828 270.37 -10.4484
16.0568 102.658 246.333
5.21604 112.171 226.98
30.2897 136.371 126.124
17.7283 118.497 207.681
38.5071 117.714 204.97
-4.65224 118.229 208.299
-12.6206 138.071 122.395
87.2389 271.969 -26.9885
78.6083 261.489 -15.2714
113.161 242.399 -10.2299
32.2786 269.483 -11.448
57.2132 271.707 -14.8125
49.3868 290.782 -31.0371
68.567 206.678 31.9521
60.8027 245.697 4.37032
38.1183 216.241 39.2871
-6.94252 215.352 46.6339
15.9047 213.936 48.4425
1.50296 246.99 18.0393
-69.0395 283.889 -44.5038
-115.312 256.302 -32.285
-27.6617 303.293 -48.7181
-46.2822 301.061 -49.162
-81.4803 286.788 -70.9398
-59.9662 301.754 -60.6815
-57.6533 307.255 -71.3252
109.115 269.223 -44.5466
82.3766 294.807 -47.3164
72.7866 311.63 -72.581
78.5112 306.427 -60.3947
95.751 298.454 -71.9464
62.5146 302.735 -48.7493
35.2384 302.559 -50.1654
-19.1204 222.658 -168.835
2.64756 248.296 -154.657
25.312 223.877 -170.205
-44.3443 296.295 -101.345
-23.6662 271.563 -125.618
-54.865 268.701 -119.054
67.7635 272.383 -120.595
30.1531 271.443 -126.032
54.6487 297.49 -101.276
2.45444 304.619 -58.9466
33.9548 311.152 -74.2249
-26.9959 312.28 -74.4783
-140.312 243.587 -36.0929
-144.659 230.925 -23.2806
-110.442 258.31 -80.8086
-126.597 253.552 -56.8593
-177.703 200.717 -34.0214
-159.609 225.968 -43.0082
-172.107 206.071 -52.5873
-34.9416 174.712 -187.538
-50.726 206.615 -171.371
-102.784 160.058 -159.605
-77.9132 182.548 -168.772
-90.2292 132.9 -191.924
-66.4899 230.134 -147.475
-83.0711 245.427 -114.096
-135.981 104.406 -93.777
-137.862 121.151 -102.7
-132.994 73.736 -129.779
-167.434 187.736 -63.625
-156.851 181.027 -77.7878
-182.24 188.848 -45.8918
-121.876 99.8368 -165.095
-133.861 133.17 -117.243
-124.815 140.709 -136.968
-131.079 223.862 -101.585
-135.127 187.453 -115.572
-158.373 200.748 -84.0743
-155.546 210.643 -12.3301
-184.941 193.265 -29.052
-174.281 195.058 -22.2362
-163.175 186.312 -2.65466
-168.103 175.067 10.6358
-131.808 70.9266 -92.4605
-147.711 146.201 -44.5591
-168.312 131.306 -18.1264
-172.125 143.908 -22.3231
-150.616 56.7757 13.3753
-178.707 178.411 -32.3716
-180.24 183.892 -30.0996
-127.28 23.3305 171.212
-132.759 4.57742 188.287
-154.688 156.813 39.4854
-116.669 80.7488 108.645
-141.551 -2.23106 81.9994
-130.41 38.393 103.434
-154.968 67.2751 8.28518
-188.084 194.121 -27.8588
-177.12 170.975 -41.7895
-176.77 185.998 -5.44668
129.022 221.463 1.37351
139.288 226.917 -6.3583
63.6863 139.212 104.078
108.847 203.365 15.1977
141.958 197.317 -0.568306
130.331 204.129 5.90316
107.437 132.402 61.7612
26.3557 85.6973 270.987
42.3045 96.0011 250.516
85.4209 77.3367 252.233
66.3829 86.6137 253.648
77.3305 70.8927 272.634
51.5199 104.529 228.898
56.5901 110.629 208.005
153.404 16.6893 194.661
141.026 32.2077 212.497
147.845 12.5102 222.729
117.68 74.3295 169.982
130.973 51.8061 198.627
128.255 64.1973 151.941
116.595 47.1308 256.183
124.019 49.4091 231.13
109.413 62.4265 243.188
81.5316 98.79 199.687
95.2089 80.2504 226.081
102.087 86.8655 184.861
-17.3893 67.9281 290.759
3.79171 75.8236 288.412
-69.1641 49.043 283.397
-46.146 59.1439 289.767
6.50282 23.3431 328.012
-17.7613 42.3353 311.426
-15.5466 14.9145 328.845
-131.274 -19.8783 226.224
-123.329 2.7514 241.379
-105.035 -45.9849 279.453
-115.823 -21.3534 262.14
-122.028 -77.1355 264.513
-110.654 20.0622 258.615
-96.1 32.4487 270.693
-1.54226 -117.475 305.741
-41.7833 -102.431 310.036
-49.0027 -159.767 307.81
-11.9497 -11.5308 339.494
-19.8382 -38.5846 332.603
7.78422 -17.7112 347.688
-94.3916 -122.962 297.324
-67.9927 -88.1228 309.92
-86.4762 -71.7527 301.308
-75.3839 20.7693 295.713
-79.8461 -16.2351 302.12
-43.636 4.09673 320.252
-133.567 -21.5447 174.782
-132.841 -29.8122 205.989
-147.575 -23.6455 73.4336
-144.233 -24.9102 112.81
-131.172 -114.54 201.784
-133.015 -62.8714 160.753
-132.521 -95.3374 147.973
-122.116 30.028 -101.329
-124.077 -0.472183 -48.0901
-145.79 -106.735 4.8139
-142.824 -76.7628 -1.06411
-138.788 -106.617 -16.5599
-140.968 -25.4518 20.0667
-146.74 -24.6251 38.3641
-118.341 -195.035 65.9836
-134.353 -175.859 34.8489
-128.256 -196.381 20.8892
-129.808 -149.34 106.446
-134.855 -153.837 57.619
-121.358 -150.886 166.904
-142.791 -153.401 0.110332
-144.068 -154.01 20.9214
-145.583 -134.639 12.47
-146.967 -60.2468 44.3065
-146.247 -108.201 20.425
-143.808 -94.3601 58.802
-128.348 61.0404 -144.993
-126.158 49.8676 -127.22
-110.83 85.3605 -185.341
-121.467 72.0684 -167.224
-111.513 30.8191 -151.035
-117.113 49.5662 -161.809
-102.321 38.4798 -174.764
2.80466 143.501 -206.677
-36.9963 129.934 -212.447
-32.7599 75.814 -221.212
-34.3323 97.8108 -222.746
6.02982 84.7817 -228.433
-69.5391 116.35 -212.097
-91.2806 103.879 -204.186
-60.4631 -39.9468 -123.795
-32.7033 2.01903 -181.731
3.08954 -1.17497 -177.338
-77.0768 21.1711 -182.932
-56.3526 9.8247 -182.357
-63.1878 -11.9943 -156.626
2.78627 32.9109 -210.429
-33.2788 20.2649 -201.012
-34.8723 41.6194 -213.341
-92.5603 72.7323 -203.786
-65.9703 57.3621 -213.034
-87.4726 45.4533 -196.475
[...]
POINT_DATA 642
SCALARS Mean_Curvature double 1
LOOKUP_TABLE default
0.0257434
0.0356536
0.0223555
0.0221516
-0.0131891
0.0184396
-0.00934698
0.000933163
0.033976
0.0244555
0.0106889
0.0242499
0.361476
0.0149265
0.000962466
0.00759775
-0.00899872
0.0256478
0.0182972
0.0165144
-0.0879629
-0.0950673
0.0180447
-0.000638576
0.0136559
0.0135251
0.0114603
0.0102796
-0.000738341
0.00775445
0.0132907
0.0130162
0.0111327
0.0137913
0.0161543
0.018477
-0.00363058
0.0225007
0.0195652
0.00850642
0.00929026
-0.00291269
0.0234581
-0.0245861
0.00596619
0.0156863
0.0194768
-0.000689742
0.0122268
0.00478417
0.0159596
0.00971211
0.0150926
0.0159988
-0.00510098
0.0226152
0.0100029
-0.00480834
0.0452973
-0.0202465
0.0370979
0.0397125
0.012134
-0.00372892
0.0128454
0.0164539
0.0201744
0.00878023
0.000476403
-0.00610671
0.0288212
0.0169373
-0.139041
-0.0214755
0.00979556
-0.0329378
-0.00116685
0.00100606
0.0248152
0.0150574
0.00666183
0.00620864
0.00448327
0.0108557
0.0116244
0.0171343
0.00251856
0.0158557
0.00757135
0.00417439
0.0155255
0.00640614
-0.000536627
-0.0107509
0.0102703
0.0462547
0.00794402
0.010381
0.0225742
0.0197131
0.00957235
0.0126662
0.0267735
0.0161465
0.0103151
0.00644395
0.00504704
0.0404076
0.0243909
0.0262328
0.0155586
-0.0923305
0.0481723
0.025857
0.0154667
0.00548482
0.0166893
0.0015718
0.0262823
0.017835
0.0104324
0.00602378
0.0102402
0.0248104
-0.0134056
0.0171371
0.0050863
0.0208644
0.0194883
0.0271704
0.0261703
0.0198387
0.0137442
-0.00963802
0.0166273
0.0217597
0.0230477
0.069522
0.00520231
0.00260237
0.00931642
0.0170406
0.00198374
-0.0129714
-0.00780492
-0.000141472
0.0116739
0.00913791
0.00894478
0.0107899
0.0148504
0.0218885
0.00977482
-0.000727108
0.0143885
-0.00285835
0.0199022
0.0154185
0.0109749
0.0725854
-0.0199977
0.00569418
0.0194608
0.0245005
0.0225858
-0.0365385
-0.00249566
-0.0685026
-0.00689959
0.00548092
-0.00259528
0.0158527
0.0110052
0.00581412
0.0159604
0.0151226
0.0160426
-0.13199
0.00301428
-0.10722
0.0131249
0.00875439
0.00846961
0.00637799
0.008622
0.0107051
0.0146165
0.012453
0.0135912
-0.0152383
0.00885747
0.00810163
-0.0042177
-0.00260791
0.00118621
-0.00198141
0.0218946
0.0038921
0.0090263
0.00948155
0.0119403
-0.00218441
0.00528399
0.0171533
0.0130836
0.00519149
0.0122381
-0.00100429
0.00299327
0.000271161
0.0118582
0.0154219
-0.00270456
0.000202029
0.00499182
0.0129136
0.00915677
0.0106244
0.0171449
0.0369023
0.0275597
0.0161768
0.0340107
0.0251675
0.0464358
-0.0178913
0.0157824
0.0446878
0.0409665
0.0453932
0.0151728
0.0130687
0.00899203
0.0127797
0.010339
0.0247028
0.00558791
0.00926534
0.0110906
0.00178726
0.0171813
-0.00609628
0.0323247
0.0390419
0.0329595
0.00926857
0.0115481
0.0257202
0.0551956
0.0280373
0.0350568
0.000298063
0.0152911
0.00534086
0.00731814
0.0147796
0.0129411
-0.00389444
-0.00120095
0.00794127
0.0147675
0.00670266
-0.00810905
0.145776
0.0107722
0.000844272
0.00515217
0.0152147
0.0125481
0.0260967
0.0171564
0.0374575
-0.0198583
-0.0238355
0.102978
0.00313348
-0.0179579
-0.228388
-0.0675216
0.0973747
0.00570305
-0.239998
0.00216281
0.011989
0.107921
-0.0367579
0.00371444
0.00219457
0.0124794
0.201361
-0.0508045
-0.0815478
0.0262376
0.0326906
0.00225656
-0.0018047
0.00522592
0.01705
-0.00205625
0.00597632
0.0081729
0.0124863
0.0115728
0.0189188
0.0122265
0.00968591
0.0170044
0.00937151
0.0105171
0.00555756
0.00849983
-0.00124677
0.0191376
0.00898905
0.0145865
0.00675962
0.00768962
0.00653078
0.00811489
0.0216029
0.0140492
0.0158705
0.0127428
0.00817652
0.0151961
0.0156863
0.011926
0.00297313
0.010621
0.0154087
0.0152177
0.0155489
-0.00561447
-0.00127269
0.00426792
0.0216207
0.00994357
0.0494567
0.0110406
0.0130841
0.0110099
0.0122932
0.0107064
0.011142
0.000589021
0.00289523
0.0108285
0.0102186
0.00220486
-0.00293146
-0.00142775
0.00349821
-0.00220045
0.0174333
0.0074331
0.00374771
-0.00733418
0.0296209
0.00268659
0.0177146
0.015806
0.00988779
-0.0510457
-0.0817485
0.0250691
0.0226846
0.0154219
0.00366833
0.00576179
0.00049048
0.0254165
0.00531547
0.0160771
0.018326
0.00876723
0.0162983
0.0143109
0.00160728
0.00935741
0.00755162
0.016981
0.0285588
0.0209914
0.0235489
-0.0232686
0.00655087
2.05315e-05
0.0152313
0.0174089
-0.071332
0.0124227
0.01772
0.0147608
0.0240326
0.0207196
0.0212496
0.0102675
0.00100659
-0.00110442
0.0117206
0.0140788
0.0120979
0.00606054
0.0183085
0.0419466
0.02674
0.0163188
0.0364709
0.0102765
0.00480648
0.0359933
0.0181135
0.080075
6.62936e-05
0.00626546
0.0128894
0.0198316
0.0095329
0.0230923
0.0153226
0.0232218
0.00394853
0.00610815
-0.00678183
0.00503878
0.0184514
0.0148795
-0.0317537
0.0200514
0.0128799
0.0268625
0.0188516
0.0106672
0.00633875
0.0200601
0.0190164
0.00390685
0.00133024
0.00325863
0.00665277
0.0290363
0.0228445
0.00337126
0.0207749
0.0262463
0.0242878
0.00768164
0.0155566
0.0137304
0.0215583
0.024588
0.0148309
0.0309548
0.019938
0.0195844
0.0150787
0.00822333
-0.00470761
-0.0119793
0.0355712
-0.00903516
0.0179945
0.0213049
0.0245524
0.0165665
0.0161966
0.0162947
0.0327868
0.00217047
-0.00815874
0.00408805
0.00997914
0.0184459
0.021831
0.0236646
0.0376993
0.0414667
-0.0123811
0.02319
0.021855
0.0141431
0.00338914
0.0257871
0.0272796
0.0148445
0.0224669
0.0260086
0.0227409
0.0298782
0.0235029
0.0116167
0.0132118
-0.0095772
-0.0144907
-0.0061224
0.0136529
0.0173033
0.00621851
0.014826
0.0212638
0.0130126
-0.00151281
0.0219915
0.016074
0.0301132
0.0267674
0.0204052
0.0231066
0.00657444
0.0317615
0.0153896
-0.020528
-0.0698112
-0.0300979
-0.140504
-0.067174
0.0113948
0.0265931
0.00950081
-0.0285224
0.0246436
0.0192868
-0.0759764
0.00574702
0.00678354
0.0946758
-0.0189175
0.0197408
0.00497272
0.0135299
0.0391546
0.0328272
-0.00440498
-0.0245329
-0.0110069
0.00388321
-0.000273107
0.00279709
0.00194854
0.00761092
0.0076896
0.0158438
0.00037688
0.0186518
0.00267873
-0.000155395
4.66869e-05
-0.00176656
0.027569
0.0226855
0.0016014
-0.000471262
-0.00280614
0.0075456
0.00371739
0.0180069
0.0286227
0.00905955
0.0162824
0.012716
0.0104075
0.0119649
0.00472681
0.0152868
0.00738613
0.016457
0.0163513
0.0114086
0.00966843
0.0183033
-0.00947473
0.0132637
0.0170803
0.0184866
0.0186664
0.0240907
0.011594
0.0193567
0.0195315
0.0254348
0.0130987
0.00267384
0.000164357
0.0163555
0.0173976
0.0209527
0.0245657
0.0154861
-0.0920537
0.020105
0.013675
-0.137316
-0.032875
0.0270926
0.0152092
0.0140184
0.0220106
0.0168169
-0.124337
-0.0255979
0.118071
0.062381
0.0218079
0.0180337
0.015613
0.00551195
0.0157656
0.0144195
0.0133593
0.0244681
0.0194735
0.00638306
0.0115817
0.0156364
0.0175621
0.0151671
0.00806657
0.0207895
0.01368
0.023196
0.0167396
0.018712
0.014536
0.0213348
0.0072861
-0.00310883
0.00816064
0.00197041
-0.0140518
-0.0337443
0.0446107
0.0257595
-0.00652321
-0.034941
0.0339331
-0.00118512
0.0106673
0.0283955
0.0328126
0.132656
0.000647804
0.029611
SCALARS CoVolArea double 1
LOOKUP_TABLE default
502.056
579.394
797.352
852.284
1613.82
472.369
4918.97
1499.17
251.974
497.558
578.262
430.442
316.975
623.383
3342.55
2070.67
1244.02
1075.53
1150.43
1112.51
201.07
1039.67
620.921
2264.29
1238.52
513.814
554.368
1458.28
1102.38
2524.11
362.472
1274.3
1431.41
1417.4
1163.54
1013.98
3542.88
647.602
717.838
2527.22
719.117
1972.31
394.37
3576.34
828.546
525.708
1005.18
1264.67
516.203
742.212
664.222
978.806
671.547
551.2
2132.27
497.562
1088.11
1110.14
407.9
766.933
537.013
494.98
1282.37
1724.92
1403.5
1116.06
409.344
1352.74
1877.13
1159.95
835.145
874.097
142.917
4520.29
123.635
5035.2
1611.97
2691.93
242.286
711.238
673.126
853.529
825.426
698.24
969.399
784.674
985.34
1068.39
2039.88
1548.06
1168.88
2142.43
1350.87
1959.07
836.399
2616.2
1236.64
551.713
599.684
564.552
1261.18
882.661
851.105
738.395
905.949
1784.31
1478.34
478.105
1085.32
723.92
1208.45
773.497
2570.91
730.244
1260.64
1199.66
673.401
1101.84
1236.22
1201.5
1424.06
2151.87
1459.89
1221.55
1762.3
1205.09
1787.79
1143.6
1121.18
660.824
599.357
963.61
1432.62
1425.06
1128.65
655.011
469.368
1147.79
1056.1
1908.45
1190.19
772.077
1613.55
3742.72
929.032
2601.37
1076.28
1409.18
1160.53
950.504
734.952
1016.78
584.204
1098.53
708.007
1011.66
682.69
858.731
919.261
1707.73
932.798
330.559
422.851
357.508
527.559
2236.42
1317.51
539.425
3014.85
2096.88
4311.24
526.541
542.192
469.604
594.953
516.61
514.951
1262.82
758.124
1321.85
546.422
617.46
613.41
2114.17
586.317
1225.18
583.559
561.274
615.849
2473.21
913.928
2299.14
906.522
840.404
2278.29
1280
592.13
710.914
1098.8
608.565
486.562
1883.24
1168.31
974.017
1119.21
1923.82
709.42
740.695
596.567
1302.95
638.225
768.388
2480.84
1137.19
1836.05
1720.95
1938.3
1400.99
735.345
731.112
690.582
399.973
827.668
443.185
621.262
791.195
553.861
690.391
344.741
643.301
421.864
778.726
1395.71
1506.35
1451.4
1169.02
1532.42
1197.94
1245.97
1659.74
1323.08
736.037
1211.24
1114.25
594.05
505.242
1466.96
937.051
281.119
622.868
607.669
1697.17
1351.04
1729.59
1500.86
1107.63
1457.63
1742.43
1280.84
1140.5
644.152
366.632
658.316
266.442
983.619
1131.55
1486.56
1687.82
1627.93
969.756
491.096
111.006
326.262
377.995
197.268
2914.37
2298.3
255.977
1163.83
1508.83
513.622
67.6565
1567.4
757.547
1079.81
2681.52
2145.83
4564.68
4770.37
188.83
2293.58
684.314
469.906
375.757
2989.4
1923.92
928.344
1104.69
2267.38
716.257
686.531
589.802
552.248
563.531
553.279
1501.02
484.411
658.141
687.049
1784.05
855.538
1952.02
588.316
601.53
595.7
2038.3
846.892
1999.61
754.037
645.434
804.852
774.866
763.903
852.092
828.044
840.87
833.205
1411.33
1058.53
1008.37
694.784
733.327
3049.1
2104.81
1610.72
815.887
1377.78
538.259
1135.88
1597.86
1588.31
1135.73
1596.73
1265.93
1601.62
875.975
1336.26
1540.03
1324.98
2159.92
3135.04
1487.55
4216.29
559.116
1826.45
1025.16
2943.29
1216.18
2067.19
1196.33
689.124
2537.83
928.034
958.32
487.228
572.872
437.927
1411.44
864.285
2877.82
465.815
525.925
708.963
569.224
1104.9
501.444
646.324
1934.31
1519.26
1019.62
987.748
782.042
998.47
808.804
3475.09
1287.25
3270.33
743.983
747.789
898.136
1029.32
807.372
1048.61
812.816
944.751
740.906
1455.01
1772.59
1599.46
1423.86
1216.48
1459.63
1740.38
602.093
712.341
629.553
728.047
380.842
831.303
1351.56
373.138
987.076
359.726
1751.69
1270.62
1042.3
515.074
1111.59
616.464
1727.55
1097.8
1824.07
2089.65
2401.79
1378.52
660.519
1384.21
1290.16
871.266
856.834
1024.98
945.305
967.774
827.18
979.094
843.438
1125.54
1040.02
673.763
572.381
1214.43
913.72
1848.57
1274.05
1028.39
1167.96
1419.12
984.958
1167.13
833.44
1154.9
1270.32
1626.62
1100.32
939.775
1337.03
2526.2
2536.11
5194.18
1209.72
1666.89
1257.09
1684.45
1077.68
1729.02
1375.82
1104.08
1462.64
1286.62
4601.98
1847.66
2015.56
870.164
1114.67
846.238
1196.6
1153.27
3326.4
735.887
691.858
1539.66
938.406
641.867
695.439
872.554
622.244
671.619
732.416
599.113
597.896
768.399
1449.7
3615.23
1989.21
3417.25
1082.33
1303.18
742.773
612.833
1190.49
926.05
1580.93
1432.33
1537.29
613.052
700.608
709.168
656.226
525.59
515.795
611.968
3640.94
1651.2
3799.19
789.49
999.745
640.584
631.652
830.405
942.143
504.329
931.433
1256.45
1487.26
1428.82
1030.87
4259.48
766.696
2671.96
800.487
958.561
597.498
691.601
1288.8
3002.3
1481.56
2825.51
1428.16
2924.06
3645.1
1764.57
611.995
1413.09
543.403
3173.41
2118.34
1506.8
1850.82
1226.16
790.078
1337.13
3142.31
2535.37
1876.5
1932.57
1360.73
599.386
995.884
871.002
857.739
1158.27
1520.81
834.736
757.308
863.667
791.945
843.06
1581.43
1175.24
1066.22
2237.75
951.406
923.545
1359.23
655.961
931.733
1012.44
940.778
1029.85
1086.46
851.945
586.657
725.403
763.781
899.116
974.432
858.559
636.578
1291.06
667.438
549.289
647.386
3848.73
567.922
647.918
574.812
610.598
714.336
833.026
4022.04
696.804
791.455
692.956
836.736
794.092
2705.14
517.165
738.35
610.674
576.998
807.662
1393.38
1052.43
872.846
841.441
817.549
1563.93
997.004
1120.69
900.973
876.451
898.938
1034.63
962.821
712.193
1795.81
1644.56
2060.87
2978.09
1434.94
234.023
609.485
3278.93
3276.13
296.168
1419.77
262.757
239.023
253.841
660.488
190.351
1205.36
SCALARS SignedDistance double 1
LOOKUP_TABLE default
41.3026
42.9891
32.481
29.1323
35.0314
40.1844
44.559
29.2223
45.1987
39.7415
45.3992
43.6581
108.626
38.1725
48.7849
49.8178
41.7486
22.8679
27.9421
32.2042
55.9159
51.8637
36.5454
60.9241
30.691
30.4775
40.1152
43.8234
32.0163
40.582
40.9818
28.8504
41.0864
29.7232
25.6456
26.4802
41.0182
32.2927
33.4808
41.2213
37.1773
44.0864
59.4197
71.5433
50.4399
40.2672
45.62
47.6764
42.2787
44.1311
38.7025
44.3478
41.3608
42.3603
49.6722
40.1265
43.7353
46.5862
34.7558
41.8083
35.7525
34.6908
26.6412
31.6259
25.2758
28.2919
40.1474
29.0682
32.9278
44.9744
45.1774
41.5014
72.1066
65.7985
63.8848
96.755
45.227
50.6038
47.4151
38.327
41.6802
43.7406
42.2744
39.5406
32.7996
33.8859
38.372
33.2207
31.014
32.8686
28.3048
42.528
42.3346
48.1917
43.6248
64.8031
42.2796
36.1724
34.5
46.3175
27.5481
30.6042
69.6839
34.505
37.0016
28.1126
29.4006
38.9256
28.3405
37.3285
44.0353
54.4364
61.2726
37.3192
44.2187
34.8286
38.5732
39.5691
21.2882
24.2323
28.621
36.5534
29.8837
19.8506
36.7741
29.0017
37.3252
48.3273
29.0394
24.9887
27.2734
28.887
44.195
47.4059
44.6121
33.1958
38.3028
72.4007
44.599
47.0774
39.7512
43.7182
39.3623
54.7535
44.5582
42.2421
41.854
30.0502
32.8067
33.1682
37.0218
26.1305
41.0708
44.9652
34.0507
46.3802
31.7816
33.9707
29.611
68.5892
49.2125
44.0301
46.2259
52.1806
46.5177
109.334
62.2892
77.3214
51.1837
58.6758
52.3173
42.8823
44.46
45.0215
41.8008
43.1569
38.3844
82.9615
47.897
71.2487
40.7654
41.84
39.0155
45.8518
42.8548
44.8842
38.181
41.8312
41.9155
49.8983
44.8579
48.9269
45.7203
43.4332
47.0134
47.088
40.345
44.1073
43.5148
41.363
42.9036
49.6588
48.0205
47.1626
47.7133
49.6624
44.0003
44.7812
44.492
42.2983
43.7805
40.1956
47.4967
44.6916
46.5847
47.2868
48.0491
41.8355
39.6897
37.5418
35.516
34.9695
36.1811
33.6841
31.0599
40.9851
35.3302
29.7135
32.4488
30.1941
35.0213
40.8446
28.2472
25.1852
28.151
24.0945
29.2054
29.511
29.5116
29.4073
24.9041
43.0862
37.4673
29.9995
34.545
37.733
32.7691
30.6606
54.3293
33.9916
42.5647
30.0997
28.588
32.7037
28.2454
28.8953
27.3869
31.0412
46.8371
50.3324
43.3882
46.2903
42.0762
58.744
34.9667
50.8746
45.2281
27.089
41.455
38.7467
47.6671
65.0202
59.4486
67.0587
84.073
49.3618
55.077
89.4156
81.774
73.0898
64.0996
63.7462
46.0538
44.0019
104.051
55.0348
47.1566
45.6297
82.5181
68.306
62.6893
74.2903
48.3207
43.1984
47.1867
51.4497
49.2209
51.2177
57.1725
38.5218
40.3077
40.6474
41.0726
36.9294
40.8923
42.8334
41.4637
40.4323
38.5267
46.2948
42.3651
45.5794
37.3647
41.2766
40.1181
44.9563
42.6361
46.3001
36.5722
36.8156
35.2438
34.6534
32.3072
34.1544
31.3472
41.5719
39.1226
34.0033
36.4603
36.4114
37.5642
35.6694
31.6223
31.4356
29.2572
30.926
30.705
30.3238
27.9907
31.3479
31.4213
32.7814
31.5047
32.4958
44.0034
43.2592
44.6396
45.2784
41.539
43.3795
42.9135
55.5684
55.6792
42.0141
44.0183
40.823
47.2019
47.3195
39.6212
37.9432
36.5648
58.9554
44.0067
50.0147
38.8747
40.2014
41.8167
43.2514
42.508
41.1685
43.5105
45.9054
32.7288
35.8796
42.0152
38.5447
36.0011
28.6255
27.6982
31.844
30.0842
30.4482
27.5956
28.1992
70.9151
42.4653
42.0315
37.1706
40.989
53.3448
32.6425
34.9554
30.3829
28.9568
29.7981
32.5891
28.2965
30.6185
30.445
26.0914
27.5213
27.1608
29.8239
36.834
32.0837
38.4869
30.8271
41.5991
38.2806
33.6586
41.4456
42.6368
43.8629
36.6151
43.313
30.9413
44.0711
47.9178
39.7927
25.8392
33.5184
37.1383
36.375
58.2264
58.0794
38.1289
39.5589
46.5953
30.9789
36.3268
31.1934
37.9728
38.655
40.518
31.4095
37.0633
33.3776
38.9545
38.7386
38.5106
31.6463
28.7826
29.2031
21.0422
20.2967
22.5064
28.1613
26.5939
26.517
37.1269
30.7051
28.5422
61.9982
28.5383
32.8669
39.026
30.8101
63.1088
45.0044
27.1085
32.0166
23.4881
24.6065
21.1649
30.5414
25.4303
29.9675
63.6561
60.9897
58.8869
66.0892
30.5767
29.5377
42.1881
32.673
41.6059
35.4639
40.2307
29.3996
26.2725
36.9944
30.3852
27.5148
27.6832
29.2174
29.6971
27.1864
28.7755
27.0622
28.0289
30.6688
30.5416
51.7751
54.2749
51.7015
35.0977
46.2927
36.6007
36.7448
41.0366
34.2957
40.13
30.6919
39.3421
28.7464
33.1905
30.3309
27.6805
38.4743
34.781
36.313
65.4269
67.7693
67.3534
75.9486
52.5037
46.2626
36.9335
53.755
62.9156
45.0713
37.5237
50.3517
39.7172
39.5004
71.9383
55.9681
35.9785
38.5122
36.8023
37.4357
35.313
38.4327
39.4415
53.0066
45.7676
62.3429
44.0857
42.6751
45.1988
42.6658
45.5005
40.8847
40.9193
39.4473
40.1794
43.6768
42.2851
45.4197
47.8462
44.8369
42.5584
30.4958
28.5862
31.0828
28.3315
30.607
36.4166
33.1512
35.1511
33.5897
30.3482
36.2163
31.0069
34.2396
34.3022
33.1893
31.0137
32.3591
30.1525
59.2722
31.253
38.9098
42.8602
41.4791
27.5824
29.6714
26.7421
22.5036
24.474
42.5276
41.1039
41.35
41.0584
37.4216
33.7442
38.0465
40.7768
67.6525
36.4369
46.9286
75.4276
72.987
34.2082
38.6573
35.463
31.29
31.5727
67.6584
59.2446
73.8603
55.7942
40.9366
35.1299
38.9172
39.8403
37.7653
34.5717
35.3635
33.3655
29.4031
41.3709
30.788
35.1244
40.0943
36.8138
27.9813
27.1605
28.402
28.2721
31.8562
31.5813
30.5065
27.9547
42.1914
50.906
42.8725
43.6474
58.1404
50.2161
45.8909
46.2698
51.9191
68.738
43.7737
47.7041
45.5606
43.7257
43.8927
72.6583
51.1835
65.1944
