# vtk DataFile Version 4.2
vtk output
ASCII
DATASET POLYDATA
POINTS 642 double
-188.842 342.637 36.8471
188.561 348.736 35.184
-192.625 -294.272 49.6039
199.879 -300.806 50.1505
1.00364 -194.364 398.573
1.13321 197.543 358.164
1.49702 -146.141 -231.793
0.900706 239.864 -276.5
293.841 40.6209 -144.333
288.534 21.0349 247.483
-281.391 40.0533 -141.028
-276.822 22.164 242.769
-261.329 201.209 132.124
-167.249 126.003 344.12
-89.3313 276.027 198.81
92.8152 279.679 202.676
1.12869 405.713 31.5198
121.069 359.365 -146.207
-115.829 355.092 -143.736
-182.744 147.967 -257.827
-294.143 219.143 -63.1131
-304.822 31.1492 49.1212
172.526 128.469 348.851
249.676 195.297 133.743
-185.165 -103.645 365.786
2.09534 21.8628 446.283
-273.743 -157.859 -52.4603
-274.484 -164.06 188.429
1.63324 39.8444 -330.468
-168.715 -61.3325 -242.402
296.954 224.452 -67.6724
187.324 150.013 -261.039
287.539 -168.886 190.484
192.42 -105.039 370.236
127.319 -307.552 268.359
-124.735 -305.158 266.594
0.489453 -346.128 49.7436
-115.121 -278.675 -126.733
119.835 -281.451 -128.752
173.736 -63.3508 -245.29
282.806 -165.859 -54.9226
316.39 22.4152 54.6582
-238.115 278.845 86.8786
-190.539 243.877 164.961
-148.167 329.11 112.403
-232.853 75.8792 302.602
-218.621 156.196 257.994
-268.42 103.691 207.989
-48.8074 241.68 296.553
-133.795 208.333 293.379
-85.9534 168 363.277
-56.6852 363.107 110.948
-95.8123 392.999 32.8394
52.2616 242.783 297.115
1.79758 288.669 212.716
101.497 396.647 33.0664
60.8094 364.288 110.388
148.231 333.464 110.995
-64.3773 412.492 -55.9732
-158.667 367.45 -53.0046
165.103 376.356 -55.1577
67.3982 414.541 -56.4488
-61.0118 308.083 -221.467
1.04872 371.957 -155.141
63.7239 309.401 -222.641
-219.586 296.847 -109.544
-254.328 295.39 -14.1
-97.9548 199.119 -280.593
-156.589 260.408 -210.368
-298.23 144.102 -102.203
-253.101 195.9 -164.337
-245.299 92.7086 -206.995
-295.616 222.446 36.5018
-293.782 52.9438 -46.4785
-321.701 145.791 -14.6547
-287.54 145.011 84.4365
-293.463 20.9696 156.855
182.873 244.165 168.386
239.639 281.773 85.6358
90.1326 169.211 366.024
138.338 210.834 296.822
278.67 103.517 210.884
224.565 157.779 263.585
240.703 76.9256 307.314
-89.3662 79.7243 409.763
1.7235 117.13 413.661
-242.816 -43.3385 311.323
-183.567 21.8942 368.976
0.544852 -79.1467 433.237
-93.6924 -38.2086 420.46
-102.835 -157.26 401.154
-295.942 -68.6781 114.1
-282.291 -79.9126 222.856
-271.75 -66.4451 -97.3199
-300.115 -75.099 -2.23723
-238.909 -227.756 124.092
-284.045 -167.458 46.8162
-245.969 -236.087 -5.89568
-189.694 38.1675 -268.127
-237.8 -12.7545 -199.703
1.30289 136.058 -321.947
-98.8414 96.9479 -315.394
-91.8055 -111.183 -251.799
-96.012 -19.1331 -303.593
0.898318 -55.3735 -301.803
160.813 264.075 -213.919
100.488 200.653 -282.565
255.49 298.112 -16.7365
223.276 302.546 -112.111
254.705 92.3195 -211.421
255.53 198.441 -168.449
301.922 136.769 -106.522
250.198 -234.452 125.417
230.554 -251.537 230.792
170.037 -312.2 174.032
251.07 -44.2631 315.9
262.606 -146.357 288.808
296.864 -82.5717 225.613
69.9948 -265.318 352.249
171.581 -219.108 342.301
105.882 -160.038 402.651
67.5614 -348.202 178.558
109.469 -340.927 48.8173
-67.642 -263.783 350.502
0.834363 -318.785 276.387
-104.959 -338.325 49.158
-65.5558 -346.668 178.361
-164.038 -307.743 172.846
69.1416 -336.024 -44.9105
167.988 -307.788 -45.0892
-162.051 -302.616 -43.3788
-66.3995 -335.769 -44.7897
64.8436 -228.424 -189.031
0.667025 -287.947 -133.781
-61.6699 -228.001 -189.077
218.183 -236.917 -99.9931
257.378 -242.439 -7.58811
94.6376 -113.341 -253.261
152.458 -194.722 -184.492
280.979 -64.3348 -97.9303
238.448 -131.797 -145.331
246.292 -13.7663 -203.927
294.144 -174.386 46.9872
304.887 45.8529 -54.4295
313.94 -78.0402 -2.69973
307.081 -70.7957 116.271
308.985 22.109 161.764
96.5544 -36.5529 425.778
189.562 22.4415 374.885
93.1546 80.0465 414.158
-221.762 -245.115 231.136
-167.487 -215.56 338.147
-252.323 -145.579 283.727
-146.951 -191.309 -181.206
-209.457 -231.746 -96.0903
-232.676 -126.538 -142.15
195.507 38.087 -271.914
98.0506 -19.3739 -305.43
100.392 97.074 -318.082
295.506 119.796 91.2634
319.66 145.611 -18.5352
295.695 227.137 35.3425
-217.131 312.511 63.1395
-196.211 307.482 101.399
-169.282 338.982 77.7397
-229.007 225.697 150.974
-217.25 271.55 121.965
-253.186 241.868 108.006
-122.367 314.625 140.682
-173.932 297.474 131.497
-141.148 259.406 179.648
-257.661 49.6311 274.698
-254.996 90.3107 256.448
-275.303 63.8663 227.256
-196.5 142.355 303.352
-227.537 118.065 282.827
-202.507 101.556 325.927
-257.187 155.266 166.56
-246.202 131.905 234.17
-235.174 175.112 199.672
-24.423 222.325 328.824
-67.8553 208.57 332.567
-41.6986 184.365 363.6
-112.964 238.465 262.03
-92.6553 227.198 297.208
-70.6251 254.913 262.998
-128.009 148.44 356.698
-112.44 190.779 329.862
-151.762 170.567 321.617
-202.868 199.947 221.533
-179.269 184.678 278.291
-161.147 220.304 244.804
-122.566 362.98 75.2332
-141.23 370.183 34.2996
-75.9893 329.739 144.819
-100.409 348.945 111.46
-51.8024 404.63 32.431
-75.9023 382.036 74.1348
-31.5097 389.283 73.1321
27.0327 222.694 329.32
1.18923 245.823 300.591
49.1537 287.121 211.189
26.5593 264.083 267.445
74.886 257.718 263.101
-23.2159 263.11 267.563
-43.8801 285.574 209.233
145.015 377.337 33.6
126.061 368.822 74.8593
169.302 344.377 76.5316
34.244 389.183 72.7623
80.9381 384.533 74.3729
55.1965 405.906 32.2909
122.217 315.934 142.902
103.723 353.255 111.042
79.5853 330.847 146.452
-26.6668 335.347 153.947
28.8696 334.76 154.272
0.672349 365.008 111.978
-128.229 387.463 -10.7578
-175.7 358.067 -8.18526
-32.7299 416.161 -11.4184
-81.2749 407.924 -11.6801
-138.992 365.978 -98.4379
-112.302 396.206 -56.544
-91.903 389.276 -100.72
177.741 365.958 -10.777
134.639 393.633 -11.3464
96.0378 392.48 -102.114
118.325 400.751 -57.3343
145.311 371.997 -100.5
85.7994 410.983 -11.7957
35.39 417.391 -11.6021
-30.3678 276.403 -252.661
0.870936 311.891 -226.418
32.3413 276.95 -253.302
-61.4992 369.667 -153.742
-31.9551 344.069 -191.152
-89.6721 335.361 -184.617
93.7949 338.096 -186.319
34.0875 344.37 -191.248
64.51 371.387 -154.474
1.21731 415.573 -56.9
35.4626 399.967 -107.527
-32.9583 398.653 -106.98
-211.421 332.781 -33.1454
-224.504 321.985 10.8441
-168.698 328.471 -127.431
-191.243 334.498 -81.9824
-277.09 260.842 -38.6841
-240.137 298.614 -61.3165
-260.415 261.273 -87.6935
-49.7066 221.34 -281.147
-79.6078 257.205 -254.391
-170.526 205.049 -236.383
-127.878 231.979 -248.612
-142.61 174.378 -273.114
-109.921 287.628 -219.109
-137.038 310.301 -179.612
-288.097 90.0294 -122.325
-273.412 117.894 -153.053
-267.087 65.2807 -174.509
-278.327 208.973 -116.965
-282.136 169.706 -134.526
-304.448 180.121 -85.7983
-217.041 120.684 -235.484
-247.817 146.08 -184.809
-216.781 172.052 -211.984
-191.69 282.626 -161.991
-208.508 229.549 -190.079
-240.031 248.4 -140.341
-249.732 290.803 37.1357
-301.537 224.879 -11.6737
-278.752 260.674 11.3328
-269.394 253.75 62.7189
-282.278 215.212 84.6724
-290.285 47.7759 -101.896
-300.47 102.476 -74.9069
-313.293 108.772 5.32773
-315.226 111.891 -27.0033
-301.436 48.1121 6.30063
-315.119 147.465 -53.7171
-319.544 179.663 -38.2963
-284.713 63.6998 187.561
-288.755 22.2547 203.838
-283.508 174.191 108.874
-275.729 119.371 146.326
-302.229 20.4745 99.8658
-289.103 71.575 129.16
-298.351 88.8644 61.2989
-318.913 182.685 9.57422
-314.381 149.826 26.7723
-305.561 183.159 59.1343
196.947 311.021 100.301
218.316 315.981 62.9282
138.178 264.387 186.887
172.187 301.157 131.469
252.897 248.397 101.07
217.199 276.93 117.228
221.569 221.745 150.423
44.9167 184.651 364.633
71.8151 209.617 334.19
156.921 173.276 325.727
117.075 192.832 332.969
132.613 150.474 360.707
97.0066 229.196 299.082
116.325 241.807 264.058
286.503 63.4784 230.245
263.917 91.4238 260.572
267.446 48.7571 279.183
240.157 168.765 211.26
253.764 132.237 238.697
265.196 143.935 185.265
208.869 103.859 330.826
234.82 120.424 287.537
202.635 145.211 308.048
162.729 222.357 251.472
184.305 187.065 283.191
205.362 197.522 232.405
-42.6754 145.274 392.227
1.34424 160.242 388.227
-131.28 105.429 379.814
-89.2772 125.949 389.393
2.01713 69.735 433.563
-43.739 98.5969 416.398
-43.6616 51.1233 432.915
-259.996 -11.3637 278.601
-240.114 21.0213 309.331
-185.974 -40.3555 369.508
-214.861 -11.1476 341.323
-218.311 -73.9194 341.375
-211.024 50.9717 338.203
-178.387 76.3521 360.063
-0.556918 -140.325 412.14
-52.3259 -122.842 416.089
-55.675 -178.671 406.529
-44.3428 -5.93024 441.643
-47.0826 -58.3929 431.991
2.0139 -24.3149 447.473
-146.734 -132.215 387.095
-100.635 -99.76 409.863
-142.969 -74.3394 396.453
-138.877 51.851 394.162
-142.615 -8.64464 398.997
-91.8892 23.0654 422.809
-289.824 -23.9827 191.272
-281.351 -29.5231 232.344
-305.628 -20.1379 81.5114
-299.286 -20.8953 134.909
-279.58 -125.869 207.559
-286.396 -75.48 175.882
-282.719 -117.775 156.173
-275.671 -3.63549 -128.342
-281.154 -9.91485 -74.6425
-291.04 -118.259 -26.9643
-290.314 -77.6619 -43.6347
-276.198 -117.693 -71.0778
-298.608 -22.9638 -16.4694
-304.957 -23.6257 25.7139
-218.187 -266.289 84.2056
-247.21 -237.74 48.7226
-222.46 -268.147 20.8174
-268.901 -166.048 118.449
-265.174 -201.32 81.5694
-262.172 -199.975 161.119
-262.368 -198.792 -30.2552
-268.553 -202.716 21.703
-283.566 -164.921 -2.23624
-301.609 -72.0635 48.7433
-297.227 -122.99 20.2061
-290.613 -119.018 78.2999
-245.827 38.5148 -207.612
-262.557 12.75 -171.908
-189.689 92.9937 -267.755
-219.871 66.1263 -241.19
-206.631 -35.5988 -223.949
-216.25 11.5303 -236.904
-183.052 -13.6145 -258.526
0.990254 187.232 -301.256
-50.5565 169.358 -306.046
-49.5354 68.4139 -328.842
-50.3924 116.512 -322.697
1.73327 87.0835 -332.873
-100.627 147.274 -303.074
-143.837 124.428 -291.81
-50.8728 -129.013 -246.507
-47.1746 -81.3233 -283.861
1.22209 -93.6699 -278.026
-135.846 -42.8926 -276.387
-94.0963 -63.2452 -283.279
-130.01 -87.7929 -251.207
1.11358 -9.61946 -319.547
-48.9864 -38.0383 -306.558
-49.376 8.8974 -320.989
-148.1 67.3047 -296.839
-99.2168 38.0327 -315.702
-145.401 9.14367 -291.598
[...]
POINT_DATA 642
SCALARS Mean_Curvature double 1
LOOKUP_TABLE default
0.0073083
0.00602678
0.00719503
0.00743839
0.00224959
0.00877793
-0.00805601
0.00546572
0.00850353
0.007698
0.0110606
0.00787169
0.00675329
0.0063458
-0.00181223
0.000358124
0.00282215
0.00760023
0.0070938
0.00650718
0.0043104
0.00526733
0.00651248
-0.0015336
0.00409287
0.00934543
0.00752864
0.00748099
0.00546066
0.00565229
0.00912013
0.00612134
0.00791178
0.0055323
0.00648522
0.00757171
0.00111419
0.00717013
0.0072658
0.00569714
0.00687468
0.00351957
0.00734179
-0.00155999
0.00751979
0.00654481
0.00542705
0.00556958
0.00608252
0.00613365
0.0062497
0.00632052
0.00767268
0.00548438
-0.000772349
0.00803418
0.00536402
0.00627152
0.011053
0.00636473
0.0103946
0.0102653
0.00579124
0.00322841
0.0056427
0.00632575
0.00950231
0.0048437
0.00421019
0.00538451
0.00765999
0.0060638
0.00580817
-0.00377954
0.0133613
-0.00671787
0.00119486
-0.00390065
0.00857679
0.0064211
0.00648421
0.00604389
0.00629684
0.00616745
0.00571524
0.00664719
0.00577882
0.00596106
0.00489577
0.00355359
0.00798575
0.00150356
0.00608386
0.00164567
0.00566579
-0.0049719
0.00712135
0.00773422
0.00784759
0.00615606
0.00531036
0.00703247
0.00362587
0.0073787
0.00568582
0.00449365
0.0046661
0.00721798
0.00565925
0.00608418
0.00603098
0.0025113
-0.00332226
0.00687597
0.00621603
0.00267723
0.00826308
0.00633226
0.0075415
0.0071317
0.0080494
0.00948458
0.00614725
0.00736878
-0.000710569
0.00608797
0.00944429
0.00731116
0.00576739
0.00743601
0.00737199
0.00753204
0.00464607
0.00145251
0.00652263
0.00686622
0.00765801
0.00344174
0.0062544
-0.000578939
0.00554581
0.00641069
0.00536484
-0.00278711
0.0088055
-0.000501056
0.00578022
0.00472689
0.00610291
0.00601459
0.00763989
0.0066659
0.00878656
0.00576986
0.00684399
0.00626865
0.00765056
0.00686954
0.00666901
-0.00133588
0.00907921
0.0094677
0.00716259
0.00779827
0.00650385
0.00292283
0.00699565
0.00632057
0.0026526
0.0065076
-0.00623228
0.00664177
0.00622387
0.00698452
0.00627538
0.00633039
0.00642507
-0.00202185
0.00528907
0.0040593
0.00616127
0.00620319
0.00575621
0.00425975
0.00654812
0.00523264
0.00634945
0.00652295
0.00625826
0.00410312
0.00597729
0.00475994
0.00530673
0.0045008
0.00245558
0.00474275
0.00840653
0.00791968
0.00646579
0.00592895
0.00714271
0.000643388
0.00571325
0.00549589
0.00585901
-1.54359e-05
0.00663105
0.00714357
0.00612467
0.00501497
0.00849216
0.00753044
0.00116379
0.00611289
0.0030677
0.00505095
0.00352327
0.00198237
0.00702346
0.00510124
0.0081412
0.00903584
0.0060487
0.0108088
0.00722577
0.00551495
0.00872511
0.00670392
0.0105293
0.00670455
0.00869047
0.00822862
0.00593119
0.00526077
0.00584544
0.00784941
0.00542792
0.00668247
0.00668776
0.00447248
0.00727964
0.0060537
0.0062095
0.0059918
0.00740554
0.00751584
0.00443367
0.00471396
0.00744399
0.00579991
0.00575062
0.00386481
0.00594339
0.00357822
0.00475297
0.00599737
0.00567922
0.00410391
0.00442945
0.00261491
0.00617036
0.00672244
0.00966963
0.0126437
0.00656561
0.00177097
0.00303816
0.00540628
0.00493239
0.00602585
0.00692616
0.00820797
0.00755752
0.00685492
0.00718426
0.00548879
0.000320266
0.00617213
0.00869496
-0.00285975
0.00756086
0.0156945
0.00543427
0.00829457
0.0107027
-0.000142848
0.00370903
-0.000127755
-0.00254974
0.0148525
0.00645981
0.0152199
0.00789094
0.00704768
-0.00270981
0.00596655
0.00845425
0.00713546
-0.00134985
0.005161
0.00603325
0.00667077
0.00679273
0.00655751
0.00650736
0.00472141
0.00605057
0.00618695
0.00597041
0.00383842
0.00558181
0.00411576
0.00649696
0.00677168
0.00668384
0.00491497
0.00670761
0.00460119
0.00597893
0.00710448
0.00615436
0.00592753
0.00694942
0.00601446
0.00652843
0.0019776
0.00621552
0.00434893
0.00293673
0.00691881
0.0065603
0.00645398
-0.000671942
0.00247949
0.0102644
0.00929795
0.00397499
0.00984868
0.00621776
0.00311949
0.00517482
0.00589131
0.00489397
0.00653768
0.00296326
0.0047165
0.00536928
0.00433643
0.00476959
-0.000613083
0.0014221
0.00561034
-0.00484343
0.00711983
0.0038261
0.00520354
0.00317968
0.00441428
0.00437678
0.00656781
0.00713053
-0.00532381
0.00785725
0.0106684
0.00644128
0.00631819
0.00735582
0.00314741
0.0083869
0.00199715
0.00759944
0.00652883
0.00740463
0.00671465
0.00614226
0.0071288
0.00720448
0.00282862
0.00542539
0.00724136
0.00579202
0.00778919
0.00681307
0.00746303
0.000546843
0.0063222
0.00406917
0.00704081
0.00618083
0.00594566
0.00498651
0.00661593
0.00557045
0.00703957
0.00701745
0.00757089
0.00572487
0.00374898
0.00528834
0.00542012
0.00559489
0.00529048
0.00421617
0.00636651
0.00563595
0.00691031
0.00698668
0.00556231
0.00589143
0.00559228
0.00904324
0.00399637
0.00797299
0.00324147
0.00305527
0.00602636
0.00769753
0.00501752
0.00831578
0.00489666
0.00642547
0.00525501
0.00415982
0.00353614
0.00193642
0.0106914
0.00822937
0.00834959
0.0087752
0.0109885
0.00543528
0.00441773
0.00593369
0.00404239
0.00697772
0.00624803
0.00677466
0.00685396
0.00876634
0.0104729
0.00834305
0.00812709
0.0101402
0.00713552
0.00734886
0.00750987
0.00568201
0.00854256
0.00697616
0.00605893
0.00639067
0.0066261
0.000958674
0.00649732
0.00796854
0.00614717
0.00442625
-0.000720467
-0.00198894
0.00907114
-0.000318859
0.00593658
0.00874145
0.00706632
0.00817594
0.00588918
0.00620183
0.000936408
0.000773096
-0.00181838
0.000381811
0.00568039
0.00639108
0.00656172
0.00855966
0.0102238
0.010602
0.00189445
0.00786658
0.00762134
0.00566532
0.00801758
0.00732484
0.00783829
0.00762073
0.00763966
0.00774857
0.0073801
0.00758509
0.00733041
0.00845577
0.00537917
0.00456745
-0.000132572
0.00488002
0.0057465
0.00641063
0.00759244
0.00699553
0.00635772
0.0074707
0.00271787
0.00603516
0.00623615
0.00733928
0.00699523
0.00685349
0.00724826
0.00905223
0.00726029
0.00773043
0.00116507
0.00525439
-0.00506024
0.00676496
0.00597331
0.00641996
0.00712603
0.00713133
0.00540916
0.00633721
0.00671776
0.00156485
0.00434044
0.0061658
0.00426065
-0.00481123
0.00699441
0.00707508
0.00773806
0.00665067
0.00383379
0.00954468
0.00835108
-0.00628564
0.0104358
-0.00282407
0.00409888
0.000874134
0.00166362
0.00297962
0.00838782
0.00509046
0.00757549
0.001901
0.00169021
0.0020988
0.000451083
0.00972428
0.00968235
0.00156629
0.00253068
-0.00105239
0.00282632
0.00245444
0.0058239
0.0104172
0.00587766
0.0059696
0.00549445
0.00545427
0.00313032
0.00573148
0.0071078
0.00630498
0.00595539
0.00614362
0.00620523
0.0058692
0.00718626
0.00672815
0.00862595
0.00583972
0.00670646
0.00712296
0.00716749
0.00854904
0.00737559
0.00722411
0.0068346
0.00702599
0.0119692
0.00727461
0.00397297
0.00626919
0.00667745
0.00732357
0.00804057
0.00605545
0.00710267
0.00591665
0.0055807
-0.0037984
0.00736768
0.00615686
0.00742078
0.00724097
0.00688121
0.00607694
-0.00477403
0.00451067
0.00318702
0.00742559
0.00672153
0.00620328
0.00619894
0.00750847
0.00698639
0.00681637
0.00811248
0.00680992
0.00621212
0.00582979
0.00644777
0.00588827
0.00688676
0.00544423
0.00701826
0.00628352
0.00664168
0.00913195
0.00718519
0.00639647
0.00720996
0.00786906
0.00362486
0.00126275
0.00318923
-0.0033313
0.00579067
0.00699813
0.0104258
0.00351441
-0.00581197
0.00753233
0.00803885
0.00856002
0.00827224
0.00913364
0.0101628
0.0101014
0.00615625
SCALARS CoVolArea double 1
LOOKUP_TABLE default
1986.53
2026.43
2222.96
2286.24
2552.69
1755.13
2978.71
2420.41
1644.39
1917.93
1701.17
1816.18
2414.7
2329.73
3632.98
3314.64
2655.84
2934.16
2902.13
2784.57
2535.34
2952.66
2404.03
3065.81
2885.14
2460.9
2237.55
2415.4
2734.79
2923.8
2444.28
2897.51
2513.03
3027.12
3189.92
3067.65
3642.91
2520.98
2583.71
3042.66
2347.94
2964.59
2006.32
3304.92
2011.62
2155.12
2438.69
2426.49
1937.29
2234.37
2246.66
2394.41
2282.95
2003.55
3341.14
2266.14
2473.11
2041.69
2808.96
2614.78
2529.14
2891.88
2836.5
3306.99
2895.87
2985.23
2290.99
2847.07
3193.48
2244.75
2863.84
2540.96
2203.44
3435.1
1542.96
3042.82
2510.24
3720.84
1874.65
2284.12
2203.78
2109.88
2309.03
2293.24
2729.6
2399.17
2539.86
2825.2
3250.73
3225.91
2800.96
3220.16
2253.87
2834.49
2323.43
3114.12
2660.24
2273.26
2572.71
2287.26
2830.27
2836.65
2688.94
2639.59
2421.14
3221.97
2897.25
2471.78
3051.27
2539.74
2963.79
2481.78
3233.94
3002.64
2866.98
2683.25
2843.49
2281.55
3105.64
3246.78
2882.97
3215.69
2999.54
3076.05
3595.21
2917.79
3159.47
2832.75
2939.5
2542.29
2454.18
2859.32
2537.86
3017.48
2446.88
2682.42
2388.36
2707.99
2860.51
3157.4
2924.17
2382.46
2860.97
3023.14
2314.52
3416.33
2299.29
3195.28
2891.97
2749.04
2822.4
3164.38
2617.45
2834.07
2580.86
2853.42
2663.95
2712.59
2872.35
3487.92
2185.44
2042.43
2147.85
1943.09
2225.7
2763.11
2196.8
2064.1
2811.55
2534.35
3921.08
2158.62
2052.08
1882.24
2296.17
2080.1
2123.82
2710.13
2375.2
2803.62
2024.2
2130.77
2158.53
2997.36
1973.7
2471.21
2186.91
2107.85
2300.84
3128.84
2632.33
3341.29
2283.34
2439.84
2947.92
2099.1
2252.92
2149.1
2555.62
2062.91
1954.56
3288
2452.17
2413.67
2433.6
3334.79
2336.23
2184.56
2223.31
2605.94
2142.32
2327.45
2742.9
2086.75
2924.68
3331.12
3414.92
2963.27
2466.67
2501.74
2730.91
2314.2
2661.38
2467.43
2897.83
2455.52
2403.69
2991.72
2522.36
2666.27
2394.11
2771.77
2814.45
2959.18
2841.17
3072.21
2949.09
2735.53
2790.5
2991.08
3138.42
3369.08
3576.94
3536.51
2567.95
2288.24
3097.68
2771.88
2363.18
2582.05
2835.25
2898.42
2870.97
3128.59
2879.68
2686.35
2854.54
3116.05
2359.92
2629.78
2323.97
2647.27
2331.09
2015.33
2541.5
2730.52
3065.18
3462.14
3467.62
3235.13
2189.04
2343.13
2213.54
2130.01
2100.8
2601.8
2507.12
2390.67
2190.91
2995.12
1819.01
2029.54
2416.01
2020.99
2332.69
2967.52
2875.9
3456.21
3610.27
2043.77
2342.73
2125.9
1948.54
2234.94
3755.62
2691.28
2173.99
2417.1
3315.65
2205.22
2182.15
2319.28
2130.05
2225.34
2009.77
2823.11
2032.55
2173.68
2265.65
2915.36
2161.56
2731.7
2240.05
2144.81
2322.11
3333.38
2534.05
3334.51
2369.66
2229.23
2580.37
2392.34
2387.67
2465.61
2661.59
2444.03
2442.74
3013.98
2635.35
2604.78
2372.33
2545.1
3275.95
3175.95
2896.68
2781.59
3035.76
2548.84
2742.26
3066.44
3191.31
3104.7
3405.02
3216.88
2438.45
2286.66
2756.02
2686.73
2082.26
2712.21
3130.27
2445.63
3510.92
2121.41
2666.98
2210.36
3240.41
2780.79
2953.76
2648.78
2396.12
3210.37
2745.57
2585.51
2201.79
2269.63
2230.87
2956.69
2549
3455.33
2243.97
2061.82
2648.99
2339.95
2512.9
2220.23
2430.2
2974.13
2926.51
2828.36
2714.04
2558.13
2712.34
2776.67
3101
2591.17
2960.44
2479.8
2398.76
2601.9
2561.44
2456.43
2811.26
3053.84
3105.57
2931.08
2924.56
2925.73
3121.27
2899.02
2762.83
2917.19
3169.63
2446.15
2609.66
2789.04
2639.72
2394.55
2734.5
3096.05
2233.36
2694.92
2202.19
3130.77
2836.83
2632.54
2221.92
2646.93
2678.74
3540.32
3309.42
3520.45
3105.62
3075.2
3114.6
2580.85
2628.55
2672.03
2715.37
2605.75
3211.08
2553.3
2529.95
2410.69
2912.54
2557.19
2674.25
2127.17
2275.8
2496.01
3011.91
2878.14
2950.04
3306.48
3020.96
2999.48
2879.71
2855.79
3062.21
3406.04
3493.46
3676.88
3371.17
2858.07
3031.35
2968.61
3175.53
3457.62
4021.33
3016.42
3307.01
3338.56
3231.14
2960.59
3245.44
3383.42
2824.44
3323.88
3051.26
3970.55
3337.4
3073.12
2627.63
2885.04
2925.45
3540.84
3513.8
3759.51
2554.84
2498.61
3085.82
2576.78
2474.58
2537.8
2777.94
2389.21
2493.47
2700.35
2476.35
2403.97
2511.79
3035.41
3003.14
2752.39
2965.31
2811.8
2658.66
2355.97
2298.3
2612.73
2734.45
3483.01
3353.89
3411.72
2541.68
2527.28
2699.52
2532.49
2215.91
2447.86
2486.35
3087.35
2681.79
3648.88
2766.37
2684.3
2426.69
2574.67
2462.02
2659.38
2150.52
2506.94
2800.98
2547.42
2616.46
2853.84
3717.8
2895.67
3449.24
2806.58
2758.95
2406.23
2298.7
2836.36
3391
2275.36
3296.14
2703.98
3096.33
3224.71
2781.46
2328.54
2445.86
2082.4
3246.54
2733.56
2605.06
2835.21
2761.35
2789.57
3013.32
3734.83
3370.78
3375.5
3209.76
3067.01
2701.46
2553.5
2656.46
2480.66
2704.17
3165.27
2399.66
2645.79
2467.62
2423.83
2651.71
3464.58
3138.81
3164.29
2967.09
3035.11
2585.83
2604.97
2459.32
2895.12
2935.45
2827.66
2994.74
3202.34
2416.54
2262.52
2171.83
2496.94
2814.12
3446.87
3280.88
3084.03
2650.06
2524.01
2397.88
2751.81
3548.39
2407.02
2473
2328.38
2415.95
2604.62
2421.96
3608.47
2730.92
2482.98
2417.66
2832.42
2788.75
3408.27
2310.75
2535.81
2316.79
2418.65
2767.97
2611.61
2799.43
2491.68
2467.84
2577.25
2940.65
2898.31
2772.58
2689.76
2774.88
3041.3
3147.16
3154.73
2064.07
3316.19
2863.18
2907.9
3470.82
2300.05
2167.5
2094.12
2599.06
3216.43
2266.85
2470.48
1895.76
2234.09
2360.53
2826.65
2167.14
2740.14
SCALARS SignedDistance double 1
LOOKUP_TABLE default
177.775
175.553
151.767
141.556
128.013
184.319
197.684
136.458
186.189
183.358
201.835
196.634
236.481
182.089
222.753
219.999
176.856
124.015
132.123
148.688
166.552
217.683
174.862
219.402
148.031
141.939
185.338
192.107
146.372
182.407
167.753
141.172
178.53
140.185
114.046
119.258
151.176
151.706
148.745
177.214
176.034
202.346
201.77
229.984
208.686
187.274
207.798
214.906
202.598
203.34
181.514
204.16
178.289
199.735
220.546
173.966
202.083
206.402
140.106
150.418
144.778
138.712
130.592
128.647
128.227
142.261
165.092
137.786
142.709
196.16
167.087
171.001
196.779
222.17
216.402
232.632
210.919
217.544
198.888
177.529
197.425
201.471
199.242
178.286
160.43
162.155
176.102
164.049
135.072
144.098
131.301
198.619
197.064
207.716
202.782
184.705
187.975
164.556
159.478
188.317
134.719
138.377
192.19
160.057
168.251
136.048
134.713
160.915
136.682
156.286
159.336
188.721
174.198
140.407
151.261
161.517
152.311
182.902
104.326
114.978
129.499
148.583
139.43
105.486
122.151
140.852
148.739
155.855
140.268
133.923
141.898
139.965
175.12
163.436
175
152.921
152.107
190.337
173.1
193.984
187.504
178.331
178.463
209.73
199.555
190.66
198.732
137.785
156.939
155.799
154.674
123.678
168.792
176.286
162.758
195.257
151.838
157.383
135.238
211.565
204.762
195.27
189.035
203.817
193.994
233.675
215.058
215.795
219.062
215.596
223.797
191.766
200.682
205.275
194.308
196.943
183.983
229.466
211.446
227.554
193.749
192.822
182.749
211.557
203.212
210.56
181.386
192.636
192.722
223.297
205.437
216.698
196.255
179.645
215.613
209.065
174.888
193.255
189.696
192.597
201.003
219.957
207.652
206.653
208.477
221.309
176.45
193.028
192.331
190.849
190.688
174.241
215.293
205.259
213.102
213.172
211.383
199.078
163.921
162.383
157.816
158.963
136.871
145.338
127.828
159.899
157.792
121.446
137.747
127.419
155.233
161.091
132.372
128.239
131.297
124.266
127.66
131.197
126.242
128.517
123.388
144.638
128.757
124.515
153.813
169.651
138.11
142.472
162.155
148.605
151.231
136.601
135.199
148.241
141.109
141.573
136.4
138.107
202.624
188.293
184.745
165.091
183.372
186.359
158.642
174.539
161.858
140.899
151.097
149.121
182.44
181.651
179.48
197.781
214.737
210.6
211.349
230.376
222.036
220.714
203.827
197.893
214.169
206.72
238.973
224.2
212.651
215.869
225.823
209.681
223.202
222.17
201.065
186.657
218.446
212.954
209.345
209.502
219.566
181.247
189.661
186.497
187.489
175.38
198.509
205.523
192.246
190.887
180.808
209.995
200.809
211.857
176.019
188.985
187.014
207.307
198.229
209.485
171.877
173.101
170.697
170.293
151.669
160.657
150.924
183.05
179.442
160.163
167.633
162.582
175.299
172.517
139.725
140.447
130.445
141.127
138.548
130.345
138.781
139.474
147.015
161.234
153.014
151.202
204.898
195.858
207.386
206.171
194.368
201.047
198.733
211.123
211.565
195.755
201.656
195.202
210.928
208.93
165.624
169.473
156.589
194.54
184.709
192.904
173.717
176.023
183.516
202.582
197.92
197.431
178.543
193.766
151.883
162.904
183.499
173.161
170.645
137.031
135.41
142.332
135.951
136.802
135.476
139.739
195.567
176.71
180.677
170.998
173.345
186.412
155.534
162.766
151.009
145.38
146.134
157.457
132.379
135.783
132.201
131.389
136.327
135.098
141.05
166.345
151.306
147.55
147.626
159.558
137.878
131.751
171.68
171.548
186.504
152.06
161.148
147.863
175.359
172.042
160.059
135.179
142.755
144.843
154.173
166.722
157.359
163.987
162.446
180.304
131.293
146.118
122.706
171.155
172.8
180.407
143.516
156.871
152.992
180.907
170.978
168.407
118.404
112.844
130.759
108.82
105.493
104.293
132.908
119.577
127.715
142.919
130.003
122.452
153.57
137.893
129.723
145.489
144.445
155.505
164.48
114.642
114.173
113.488
110.339
107.895
114.341
112.832
144.349
156.862
164.519
159.3
155.554
143.905
136.347
147.509
131.879
136.348
132.423
154.483
133.122
134.445
146.57
141.147
139.256
134.451
142.858
144.254
138.36
142.709
137.719
144.997
139.456
143.663
193.835
184.164
190.82
155.69
171.232
162.413
161.62
167.278
155.322
147.96
148.061
153.354
139.335
143.856
147.556
141.404
164.154
150.2
163.853
194.681
193.486
190.623
194.921
183.094
172.85
160.083
197.925
197.215
181.066
180.115
191.792
184.538
175.97
196.761
191.487
161.95
179.23
170.669
156.727
173.229
167.044
172.23
181.811
200.077
202.102
198.654
196.666
202.788
192.941
186.478
191.453
192.136
184.657
188.209
200.146
195.587
195.699
185.832
194.988
189.793
137.246
140.635
137.359
133.275
136.765
169.582
164.586
166.521
158.19
148.175
170.525
147.899
158.82
165.955
164.332
145.959
154.73
145.239
174.84
135.817
151.677
171.364
174.921
115.252
138.99
123.914
111.309
116.151
185.93
184.714
185.937
169.286
156.428
134.34
143.897
158.983
192.083
163.809
173.943
195.07
194.492
151.204
173.03
162.12
151.186
154.857
210.275
198.512
206.465
203.032
189.349
168.42
177.082
182.916
166.652
163.925
163.938
152.872
142.4
175.693
149.993
161.577
170.831
166.911
134.658
134.841
133.153
132.7
139.989
152.559
143.99
140.446
200.888
205.497
203.054
208.721
215.659
201.924
186.45
198.093
212.417
214.455
180.341
207.999
195.716
177.879
179.81
218.686
200.3
210.336
