# vtk DataFile Version 4.2
vtk output
ASCII
DATASET POLYDATA
POINTS 642 double
-126.368 243.633 -9.7957
124.398 253.635 -13.4877
-120.025 -214.474 40.3637
137.868 -222.194 40.7486
1.30065 -175.995 306.018
3.51617 96.6809 270.345
3.1587 -69.5195 -104.096
2.77913 195.042 -186.495
164.171 64.5889 -117.812
163.8 0.465341 206.5
-138.453 62.7394 -116.05
-139.442 5.18626 205.746
-155.436 155.783 49.9152
-90.0297 59.3016 262.978
-31.5719 145.074 117.027
43.0929 146.129 123.102
0.99746 291.422 -30.246
86.3217 295.483 -98.795
-72.7065 288.57 -95.8469
-112.854 117.137 -184.932
-182.56 192.308 -39.9278
-148.299 22.7006 30.953
101.479 63.6408 269.34
127.111 125.899 57.2044
-115.62 -99.5361 285.824
7.42534 -3.32871 346.431
-148.226 -131.444 -8.9639
-135.351 -138.751 191.428
5.04439 62.7905 -225.536
-91.1551 9.13301 -165.321
179.395 191.967 -50.9958
124.748 119.411 -188.316
160.378 -140.503 196.926
132.353 -100.534 289.517
97.0454 -236.653 240.427
-87.1067 -232.881 239.323
0.134207 -235.37 38.1088
-81.0188 -205.648 -54.5784
94.811 -207.554 -55.9869
102.552 6.55495 -167.826
165.097 -141.993 -11.3905
168.916 3.49866 58.2089
-150.14 202.085 8.68339
-109.346 131.977 64.526
-105.365 229.244 9.27573
-122.479 32.2256 238.292
-108.353 67.3972 207.262
-125.215 47.8271 179.157
-18.2255 115.446 228.449
-64.7076 94.0102 230.542
-44.8094 82.2359 274.373
-28.8764 253.293 14.6285
-52.7576 286.998 -24.7414
30.0997 118.383 227.659
6.1108 143.986 128.557
68.1761 291.327 -25.3067
41.6399 253.274 15.2905
100.129 234.313 6.65358
-44.569 314.322 -57.3079
-95.8274 274.97 -51.4597
103.453 293.411 -57.4738
56.2548 315.288 -57.5847
-40.1249 248.294 -151.942
2.07511 295.234 -101.035
48.3593 250.227 -153.907
-151.755 232.748 -70.7999
-166.262 220.537 -28.1248
-66.869 155.339 -196.472
-101.133 207.976 -138.708
-165.635 172.554 -61.4954
-156.978 175.673 -96.6067
-137.221 84.7256 -147.243
-180.467 187.393 -9.43245
-134.907 84.5741 -17.4839
-182.776 173.936 -32.4072
-138.81 167.032 45.6575
-141.792 0.0366676 139.534
93.2533 141.34 85.1972
147.857 214.494 1.37264
57.3025 83.4687 277.488
74.6638 98.7094 234.658
150.136 38.7339 183.21
120.294 69.0445 216.6
137.514 33.1657 243.69
-46.6601 37.0817 311.098
4.79801 56.0435 313.318
-131.298 -51.1332 248.366
-104.773 5.35492 283.089
4.00099 -49.0388 339.969
-51.4819 -33.6824 324.26
-74.7123 -143.324 311.229
-152.96 -51.7238 98.0406
-138.692 -73.0512 209.377
-128.69 -52.4563 -49.9449
-152.96 -72.9086 16.6509
-140.406 -144.865 117.253
-150.867 -136.543 30.868
-141.157 -178.221 8.87955
-112.905 58.1928 -186.281
-127.253 35.751 -138.144
4.05973 106.865 -228.69
-67.9602 89.3161 -220.113
-67.3872 -35.7317 -151.016
-62.1965 27.5393 -204.657
2.41033 9.88088 -200.123
110.234 214.769 -145.856
74.1647 158.475 -197.619
167.777 227.506 -28.8805
156.761 241.64 -77.2108
160.12 82.2896 -151.46
165.381 171.793 -106.221
166.055 136.667 -72.5586
157.762 -151.789 114.962
149.338 -192.461 215.553
113.61 -222.484 178.588
152.289 -51.1777 252.768
162.544 -128.825 243.569
163.836 -77.8526 208.953
62.7428 -215.865 298.49
123.418 -182.713 286.386
83.2244 -148.34 311.639
59.9628 -242.094 193.674
92.3067 -241.153 40.7389
-55.699 -214.188 296.064
1.64812 -235.992 240.226
-79.1634 -239.928 41.5577
-54.3147 -240.849 191.059
-99.2514 -220.983 173.749
65.2396 -240.07 -14.7959
123.827 -229.778 -14.7796
-108.463 -223.518 -12.4219
-58.5889 -239.935 -14.5279
62.7247 -166.472 -79.049
0.633414 -201.814 -53.5765
-54.8609 -165.248 -79.6864
144.586 -184.767 -38.9045
162.195 -189.497 6.53128
77.7951 -37.2688 -147.944
99.1205 -153.997 -79.1939
151.115 -42.3493 -51.6938
140.219 -106.376 -55.0356
147.757 36.2915 -140.552
168.48 -142.507 31.5172
148.508 60.6447 -45.1388
169.333 -85.6627 19.8947
169.143 -54.7098 102.346
165.59 5.41278 152.679
57.9538 -27.3564 334.33
116.569 4.11112 290.011
56.3693 36.132 317.208
-129.231 -184.14 215.89
-112.967 -178.023 280.8
-137.207 -131.367 240.464
-86.7536 -148.32 -79.1271
-126.007 -177.082 -34.9135
-127.427 -98.1122 -51.7588
128.037 58.54 -189.447
68.7469 26.1844 -206.398
70.8979 89.0815 -223.7
170.444 81.5547 46.8383
174.835 167.46 -30.8534
170.232 194.036 -21.4283
-139.627 223.718 0.154444
-129.212 218.086 10.413
-116.081 237.054 1.87424
-149.945 137.704 60.8339
-140.149 195.691 16.0035
-156.995 177.725 15.5712
-75.3901 211.316 25.5778
-117.596 209.012 18.9368
-70.9778 139.651 91.3843
-132.998 18.5799 221.691
-127.395 36.5137 211.975
-134.445 22.0237 198.207
-102.495 63.4613 237.27
-116.061 51.5387 225.887
-108.505 45.7286 252.112
-134.78 108.217 123.181
-117.854 58.9709 192.151
-127.36 84.9922 140.023
-7.63105 107.523 249.835
-31.665 99.5608 252.89
-17.342 90.3213 273.805
-50.5405 109.723 207.933
-41.8745 105.712 231.068
-26.9983 120.349 207.947
-67.9962 71.8617 270.631
-56.7531 89.5008 252.994
-77.7212 79.0249 248.778
-94.6752 91.3808 163.246
-89.6 81.2827 219.798
-78.38 97.353 190.213
-77.2279 253.392 -7.47016
-88.6833 263.33 -21.419
-30.6995 221.693 40.6489
-57.1211 242.504 9.55098
-37.3881 293.652 -25.8307
-42.2081 273.631 -9.10409
-24.508 275.358 -5.88558
16.472 108.391 249.502
4.92934 118.356 229.618
30.3864 143.485 129.628
17.9588 125.533 209.718
39.9426 124.365 206.971
-5.4894 125.057 210.396
-13.5867 144.949 126.107
89.7494 276.488 -22.6754
80.5817 265.701 -9.96139
114.588 246.484 -4.71737
32.3641 274.366 -7.04933
58.3994 276.177 -9.6976
49.4127 295.494 -27.0975
71.1289 211.394 37.0905
62.9831 249.976 9.62468
40.2026 221.065 44.3682
-8.09955 220.414 51.9024
16.5985 219.153 53.7525
1.35878 251.791 22.6202
-71.8225 288.309 -41.6354
-117.519 260.953 -30.3008
-27.566 308.03 -45.8036
-47.8413 305.354 -46.1095
-84.4671 290.429 -71.1995
-62.6526 305.83 -58.819
-59.5814 311.176 -71.8083
111.898 273.866 -41.1438
84.6668 298.739 -44.3629
73.8446 315.618 -73.1968
80.3988 310.697 -58.6671
98.4229 301.697 -72.457
63.2486 307.277 -45.7277
34.9122 307.498 -47.0176
-19.6457 224.838 -172.689
2.52297 250.934 -157.707
25.5788 226.002 -174.004
-45.0559 299.202 -103.666
-24.0289 274.876 -128.688
-56.7086 271.571 -122.244
69.1044 275.33 -123.899
30.233 274.698 -128.936
54.8762 300.475 -103.623
2.51652 310.409 -57.2198
33.72 315.707 -75.1242
-27.0164 316.457 -75.2791
-143.406 247.671 -34.87
-148.023 234.657 -20.5895
-112.885 261.127 -82.6424
-129.317 257.306 -57.2416
-182.157 203.077 -33.6917
-163.218 229.165 -43.0023
-176.536 207.763 -54.0182
-35.5115 176.756 -191.809
-52.0378 208.662 -175.047
-106.166 161.913 -162.724
-80.3158 184.555 -172.032
-92.6737 134.696 -195.117
-68.6017 232.459 -150.397
-85.6804 248.16 -117.161
-143.052 103.359 -94.2578
-144.769 120.382 -104.162
-139.74 72.7867 -130.505
-172.571 187.949 -66.6008
-162.578 177.877 -79.2729
-186.993 190.896 -47.3616
-126.707 100.521 -167.591
-140.382 133.094 -119.759
-130.084 141.694 -140.069
-133.607 226.057 -104.19
-138.934 188.752 -119.098
-162.737 201.982 -86.7882
-159.222 213.707 -9.1144
-185.683 193.901 -29.4909
-177.566 198.052 -19.8602
-166.357 189.867 1.27712
-170.025 176.348 12.2799
-139.161 69.7492 -92.442
-154.129 143.213 -46.6023
-175.438 130.984 -15.1393
-177.521 143.157 -21.474
-157.384 58.0134 14.8972
-183.433 176.624 -33.669
-182.164 184.059 -31.5363
-134.227 25.4925 171.682
-139.684 5.71472 188.458
-157.704 160.019 43.052
-123.49 80.3462 109.647
-148.754 -0.919265 82.8813
-137.315 39.8209 104.872
-156.16 69.4578 9.00177
-190.541 196.173 -28.5641
-177.251 170.634 -38.6081
-178.393 185.195 -5.17991
131.385 224.731 7.32625
142.298 230.037 -1.90094
66.7557 144.929 107.612
111.359 207.873 21.3184
146.886 198.945 4.86041
134.253 206.811 12.2496
112.968 136.344 65.9644
27.151 90.5971 274.59
43.5878 101.46 253.671
88.6744 82.2851 254.669
68.7027 91.982 256.472
79.7561 74.9834 275.833
53.5888 110.182 231.451
59.1802 116.422 210.013
159.347 19.3234 195.521
146.425 35.3401 213.939
153.243 14.6456 224.662
123.252 78.7521 171.448
136.304 55.7803 199.763
134.284 67.9749 153.209
120.906 50.1487 258.7
129.12 53.1518 232.815
113.687 66.6753 245.123
85.2607 104.344 201.583
99.2445 85.3903 227.892
106.847 91.8892 186.592
-18.567 71.8595 294.845
3.64917 80.0473 292.364
-72.0301 51.9735 287.193
-48.036 62.4986 293.684
6.26612 25.8585 332.48
-18.9635 45.2936 315.823
-16.8631 16.9187 333.182
-137.484 -19.4769 227.778
-128.931 3.82597 243.746
-108.975 -45.4823 283.035
-120.732 -20.7845 265.103
-126.963 -76.5613 267.323
-115.476 21.7822 261.512
-99.9529 34.8041 274.105
-1.52179 -118.395 310.597
-42.0632 -103.339 314.89
-48.9962 -160.022 312.464
-13.6967 -10.907 343.99
-21.3236 -39.4481 336.99
7.39997 -17.5948 352.331
-96.8426 -123.024 301.079
-69.478 -88.4936 314.476
-89.2278 -71.5476 305.375
-78.2843 22.4595 299.739
-82.8111 -15.7025 306.166
-45.9576 5.22294 324.666
-140.551 -21.4614 175.278
-139.728 -29.835 206.308
-154.593 -22.9791 73.7657
-151.109 -24.1926 113.758
-137.786 -114.901 201.757
-139.866 -63.2002 161.451
-139.279 -95.8799 148.534
-129.565 28.286 -102.171
-131.505 -0.654418 -49.1713
-152.351 -106.725 3.62924
-149.438 -76.354 -2.9167
-144.875 -106.587 -18.8097
-148.026 -25.2424 18.0792
-153.843 -24.4195 37.6439
-123.219 -197.841 67.0532
-139.855 -177.979 35.6626
-133.291 -198.97 21.2479
-137.164 -154.098 107.379
-141.304 -155.03 58.1233
-127.999 -152.181 167.799
-148.574 -154.618 -1.14728
-150.116 -155.4 21.3605
-152.198 -135.061 12.0967
-153.862 -60.4495 44.3185
-153.018 -108.41 20.5398
-150.289 -94.9605 59.4365
-134.51 59.3697 -146.741
-132.955 47.7231 -127.987
-114.841 85.3939 -188.507
-126.37 71.411 -169.875
-116.152 27.537 -153.6
-121.957 47.3408 -164.363
-106.144 35.5792 -177.808
2.71551 145.497 -210.75
-37.5206 131.719 -216.423
-33.4565 75.0668 -226.109
-35.0472 98.3424 -227.245
5.77415 84.386 -233.169
-70.9207 117.609 -215.947
-93.7967 104.592 -207.806
-57.4782 -44.0532 -128.252
-33.164 -2.59699 -185.91
3.05493 -6.20263 -181.393
-79.771 17.6674 -186.532
-58.1683 5.91239 -186.572
-67.4146 -14.7432 -160.381
2.73356 30.5838 -214.985
-33.9718 16.9977 -205.217
-35.4365 39.7984 -217.826
-95.1759 72.1514 -207.532
-67.4058 56.1165 -217.394
-90.1886 43.2304 -200.194
[...]
POINT_DATA 642
SCALARS Mean_Curvature double 1
LOOKUP_TABLE default
0.023172
0.0305864
0.0201068
0.0198242
-0.0109034
0.0184361
-0.00995541
0.00115138
0.0337421
0.0222439
0.0098923
0.0232841
0.217162
0.0139243
0.000435513
0.00682402
-0.00778473
0.0228007
0.0160052
0.0155202
-0.0570079
-0.0314911
0.0166614
0.000473877
0.0121691
0.0139999
0.0110338
0.0109552
0.00024852
0.00718089
0.0120495
0.0122651
0.0108364
0.0128392
0.0151725
0.0180128
-0.00317152
0.0209036
0.01915
0.00795514
0.00918064
-0.00265651
0.0248293
-0.0201336
0.00611918
0.0143402
0.0149967
-1.50006e-05
0.0111119
0.00544642
0.0149431
0.00926199
0.0146556
0.0138204
-0.00490606
0.0212763
0.00922335
-0.00461148
0.0443086
-0.00959709
0.0319139
0.0375784
0.0114268
-0.00289556
0.0117929
0.0149265
0.0191896
0.00863769
0.00109136
-0.00269799
0.0240203
0.0158347
-0.0287324
-0.0196082
-0.191885
-0.0331053
-0.00105368
0.000226397
0.0255234
0.0145856
0.00663133
0.00691301
0.00456768
0.0112621
0.0108879
0.0158481
0.00235955
0.0144702
0.00759131
0.00444581
0.014589
0.00607035
-0.000385365
-0.00821607
0.0098693
0.0446393
0.00878003
0.00986629
0.0210883
0.0209627
0.00889783
0.0129284
0.11325
0.0156161
0.00964861
0.0061298
0.00539893
0.0343388
0.0219239
0.0240325
0.0133917
-0.0327819
-0.0462494
0.0251745
0.0128993
0.00495647
0.0184303
0.00197587
0.0233161
0.0168347
0.0101667
0.00632045
0.00985711
0.0223433
-0.0119136
0.0153287
0.00547218
0.0187199
0.0172895
0.0243504
0.0233852
0.0185506
0.0123792
-0.00790081
0.0139612
0.0203109
0.0257065
-0.0457521
0.00824459
0.00295116
0.0250548
0.0159981
0.00191898
-0.0127765
-0.00733832
-0.000199928
0.0108778
0.00872028
0.00875093
0.0105425
0.013845
0.0196009
0.0118124
0.00207842
0.013401
-0.0458583
0.0186448
0.0147218
0.0109557
0.0697178
-0.00970048
0.00197754
0.0161563
0.0198509
0.0212342
-0.0447742
0.00172151
-0.050806
-0.00668894
0.00759744
-0.00258814
0.0151041
0.0115793
0.00689532
0.0149228
0.0147178
0.0145573
-0.0879514
0.0141561
-0.0847378
0.0120144
0.0092781
0.00827907
0.00579587
0.00822024
0.00946462
0.013761
0.012289
0.013151
-0.00963026
0.00884649
0.00828391
-0.00333756
0.000398015
0.00115984
-0.00170182
0.0206687
0.00526489
0.00872371
0.0095397
0.0109564
-0.00140311
0.00663627
0.0163709
0.0128548
0.00489715
0.0121184
4.45736e-05
0.00616135
0.000124859
0.0123737
0.0148255
-0.00280203
0.000524677
0.00447891
0.0119484
0.00913322
0.00914956
0.0137775
0.0288591
0.0228259
0.0148378
0.0281812
0.0265721
0.0398892
-0.0108644
0.0144862
0.0385288
0.0392334
0.0379883
0.0145197
0.0116418
0.00908411
0.0117899
0.010187
0.0225023
0.00590279
0.00991446
0.0117246
0.00202657
0.0156669
0.003114
0.0271357
0.0324574
0.0316192
0.010666
0.0099787
0.0210602
0.0534023
0.0245082
0.0304674
0.000871171
0.0143155
0.00471195
0.00663884
0.0133556
0.0119328
-0.00283384
-0.00138852
0.00763231
0.0150052
0.0133063
0.000810818
0.116286
0.0101767
0.002372
0.00496198
0.0137233
0.0113818
0.0235542
0.0150021
-0.0617258
0.00282419
-0.00439189
0.0566834
0.00354151
-0.0159347
0.00687745
0.103882
0.0781406
0.041459
-0.192627
0.0023921
0.0110029
0.104933
-0.0276595
0.0035563
0.00280833
-0.0249777
0.16039
-0.0538702
0.0749655
0.0251266
0.0257413
0.00133813
-0.000410237
0.00488021
0.0158495
-0.00178117
0.00584171
0.00804995
0.0127525
0.012046
0.0171074
0.0112857
0.00806932
0.0163772
0.00872959
0.00994772
0.00574067
0.00795134
-0.000979352
0.0176337
0.00965736
0.0141751
0.00657435
0.00793372
0.00627471
0.0082537
0.0198548
0.013374
0.0144063
0.0124622
0.00845904
0.0139056
0.0141679
0.0114752
0.00278904
0.0100465
0.0145828
0.0146788
0.0146625
-0.00556451
-0.000992056
0.00510116
0.0205866
0.00911358
0.0445958
0.0100316
0.011992
0.0103835
0.0116325
0.0100856
0.0108743
0.00055183
0.00378987
0.0101182
0.00973325
0.00188403
-0.00285711
-0.0013381
0.00588262
-0.00206117
0.0160373
0.00732566
0.00361465
-0.00600619
0.0260958
0.0042364
0.0128325
0.0167604
0.042323
-0.0438844
-0.077186
0.0225925
0.0212088
0.0157491
0.00365222
0.00611608
0.000178768
0.0242779
0.00567489
0.0154716
0.0167176
0.00930365
0.014806
0.0138252
0.0016163
0.00891733
0.00828573
0.015656
0.0263202
0.0193204
0.0217357
-0.0196888
0.00779603
0.000582209
0.0143541
0.0157203
-0.0526414
0.0111979
0.016293
0.0133789
0.0215846
0.0191273
0.0196683
0.0101169
0.00147046
-0.000315447
0.0109213
0.0128763
0.0110202
0.00569772
0.0167748
0.0320341
0.0260075
0.013932
0.0334773
0.0110663
0.00568975
0.0310108
0.01667
0.0469364
0.000406175
0.00617742
0.0118795
0.0190339
0.0132917
0.0212907
0.0133817
0.021386
0.00452997
0.00768419
-0.00323691
0.00591601
0.0180161
0.0116995
-0.0124726
0.0186683
0.0130968
0.0245571
0.0170066
0.0101644
0.00746651
0.0171976
0.0181754
0.00443114
0.00118896
0.00429687
0.00714991
0.0268189
0.0231807
0.00370747
0.0189384
0.0236149
0.0225987
0.00739268
0.0151969
0.0129212
0.0212198
0.022006
0.0139218
0.0242101
0.0178467
0.0189493
0.0127632
0.0077309
-0.00217931
-0.0121437
0.0321723
-0.00832016
0.0158606
0.0201914
0.0223851
0.0161238
0.0143917
0.0147413
0.0246814
0.00525028
-0.0068143
0.00451377
0.0093016
0.0157943
0.0179033
0.0222159
0.0349628
0.0381149
-0.0118402
0.0225022
0.0200207
0.0132583
0.0043451
0.0231217
0.0250693
0.0140587
0.0201476
0.0233769
0.0210464
0.0269388
0.0211918
0.0126674
0.0118706
-0.00652384
-0.0124541
-0.00243905
0.012518
0.0154857
0.00628238
0.0141773
0.0188018
0.0127156
-0.000462768
0.0193279
0.0148285
0.0256884
0.023569
0.0185378
0.0208074
0.0080552
0.0287593
0.0149162
-0.0147674
-0.0694843
-0.0252764
-0.048219
0.0368978
0.0165211
0.0235418
0.0104894
-0.0615723
0.0218453
0.0143605
-0.0286124
0.00563647
0.0058135
0.0886413
-0.016916
0.018852
0.00523152
0.0132255
0.0260902
0.0262496
-0.00280047
0.0070677
-0.0112188
0.00343139
0.000275333
0.00291657
0.00166656
0.0080457
0.00730123
0.0155603
0.000531888
0.0174145
0.00262647
-0.000104147
0.000356545
-0.00160303
0.0260788
0.0251768
0.00226821
-0.000473431
-0.00283443
0.00659695
0.00398386
0.0166428
0.0270422
0.00882661
0.0148728
0.011691
0.0102861
0.0107752
0.00501704
0.0144487
0.00776542
0.0152127
0.0149965
0.0111396
0.00946813
0.0169288
-0.00641458
0.0128996
0.0166463
0.0168189
0.0184885
0.0228813
0.0109976
0.0184493
0.0183681
0.023008
0.0132511
0.00295912
0.000780104
0.0164414
0.0153143
0.0201239
0.0232585
0.0168719
-0.0774172
0.0175745
0.0226359
-0.0845457
-0.0282969
0.0254061
0.0148243
0.0138952
0.0202739
0.0158222
-0.0287679
-0.0223396
0.0990372
0.109205
0.0207093
0.0164742
0.015182
0.00593505
0.0147096
0.0138605
0.012921
0.0225018
0.0182
0.00825882
0.0106853
0.0145014
0.0140636
0.0142564
0.00784205
0.019297
0.0131055
0.0210535
0.0170124
0.0174908
0.0137317
0.0195503
0.00704054
-0.019515
0.00828714
0.00214511
-0.0103325
-4.76745e-05
0.0394023
0.0364816
-0.0050333
-0.0324866
0.0311282
0.00236261
0.0137284
0.0309138
0.0291928
0.138145
0.0513468
-0.0282685
SCALARS CoVolArea double 1
LOOKUP_TABLE default
560.554
634.812
856.856
919.177
1628.6
512.31
4601.46
1526.19
289.256
549.169
597.872
472.89
570.107
682.537
3381.53
2165.89
1276.86
1158.07
1228.45
1182.46
213.729
1112.69
684.543
2243.19
1312.87
573.484
604.383
1482.13
1157.94
2442.72
425.837
1340.5
1443.21
1490.56
1257.29
1100.75
3493.21
715.588
785.738
2462.96
774.135
1974.73
422.652
3407.34
841.948
579.512
1027.38
1323.87
559.004
779.943
717.617
1027.32
711.317
598.14
2173.02
546.049
1143.67
1101.32
488.016
832.898
611.865
582.796
1345.42
1798.44
1464.29
1216.28
466.137
1416.63
1924.21
1174.27
926.243
942.294
153.748
4472.89
123.926
4750.24
1638.45
2796.31
281.74
763.752
714.989
884.133
863.787
750.7
1034.44
839.636
1048.83
1139.42
2093.85
1619.42
1233.54
2191.15
1359.89
2044.5
888.646
2541.76
1272.63
607.736
667.249
626.595
1329.6
956.084
1002.5
803.902
960.277
1838.41
1534.73
561.229
1175.8
803.432
1291.31
819.606
2458.29
811.244
1351.29
1264.74
743.052
1123.46
1325.5
1290.87
1476.16
2158.08
1536
1309.13
1847.71
1299.95
1822.55
1236.92
1199.12
734.695
670.363
1039.48
1437.68
1497.3
1152.99
727.569
527.081
1054.34
1151.18
1920.17
1394.05
839.216
1631.86
3616.82
963.968
2634.76
1121.09
1486.11
1227.25
1016.44
803.601
1109.07
637.48
1197.21
773.093
1037.35
752.383
925.503
992.745
1974.07
923.343
362.304
478.65
394.28
577.432
2240.44
1295.2
579.819
2971.37
2054.78
4238.18
581.154
576.084
497.374
649.081
562.795
569.272
1542.06
863.523
1509.78
591.372
662.869
662.784
2160.12
625.347
1291.32
638.59
607.259
668.541
2339.28
952.626
2279.74
925.544
894.684
2294.18
1271.31
639.353
740.578
1143.84
653.82
530.761
1943.65
1208.02
1043.23
1173.17
2016.34
754.171
762.132
641.396
1342.72
677.465
809.042
2471.98
1144.69
1890.98
1810.19
2011.21
1472.13
791.615
800.592
751.275
452.5
912.807
506.385
720.109
844.29
603.61
795.733
413.534
734.094
475.67
835.991
1449.68
1564.38
1504.76
1256.29
1583.57
1254.4
1305.25
1706.42
1407.73
840.446
1333.01
1232.92
667.769
563.602
1547.27
1025.07
322.413
710.371
685.579
1737.74
1415.43
1792.23
1557.32
1174.58
1507.46
1786.35
1278.69
1177.71
695.309
421.146
708.436
314.486
1046.69
1202.24
1565.31
1768.02
1719.62
1063.56
529.854
120.488
353.62
391.8
209.042
2808.92
2267.21
344.947
1216.69
1632.75
548.752
81.5972
1551.96
792.179
1141.72
2719.92
2129.42
4391.56
4606.93
217.972
2222.34
687.886
506.706
443.355
3065.41
1956.63
960.228
1177.43
2324.18
763.589
733.586
640.376
599.244
620.834
599.05
1571.68
531.251
703.155
743.616
1820.12
890.219
1949.95
645.17
645.549
646.045
2106.29
891.175
2064.27
809.837
698.048
869.949
833.344
816.31
908.546
891.367
906.157
895.987
1482.19
1123.61
1079.01
755.784
799.064
3015.86
2145.32
1639.41
886.67
1455.69
611.634
1205.28
1671.56
1661.72
1211.5
1669.65
1338.58
1622.64
914.662
1383.22
1585.94
1328.4
2171.95
3238.56
1457.85
4098.93
605.051
1839.48
1118.2
2973.66
1290.57
2117.58
1241.8
746.268
2604.12
833.516
841.107
544.803
619.743
486.083
1467.07
909.873
2996.97
523.802
549.216
779.042
633.061
1194.11
558.699
703.102
1966.53
1576.16
1083.84
1058.7
849.528
1068.34
885.08
3350.41
1382.43
3143.13
792.33
822.033
957.694
1090.52
868.84
1115.04
896.201
1024.83
817.449
1515.07
1810.3
1653.09
1481.63
1282.8
1522.46
1796.94
680.252
798.714
719.19
816.046
454.42
921.277
1427.63
439.299
1044.6
433.745
1806.37
1356.53
1109.3
552.785
1141.28
694.182
1805.32
1199.46
1894.92
2118.4
2382.21
1492.52
700.926
1387.49
1237.12
943.253
911.978
1121.32
1015.45
1027.51
878.687
1059.36
906.548
1190.01
1059.49
709.426
612.411
1297.71
987.462
1867.57
1371.78
1114.25
1254.35
1479.25
1054.86
1245.98
925.947
1258.14
1383.57
1765.75
1190.4
1020.09
1429.79
2519
2571.23
4996.71
1293.51
1756.23
1349.66
1754.82
1163.58
1799.51
1467.5
1194.88
1611.56
1388.31
4453.09
1941.38
2040.79
944.41
1224.88
927.521
1301.67
1256.95
3263.38
803.951
765.514
1610.26
997.393
711.459
763.451
946.338
690.436
740.939
807.82
667.856
665.475
830.43
1518.05
3370.12
1964.52
3194.5
1151.99
1358.15
795.582
671.254
1246.32
995.615
1672.84
1516.01
1622.29
690.295
777.855
787.479
731.839
573.208
582.263
667.722
3344.24
1529.37
3674.3
827.413
988.468
708.311
700.428
876.802
967.373
553.247
996.953
1334.44
1507.56
1573.54
1355.59
4281.18
838.833
2622.91
858.875
1026.86
655.994
725.927
1239.14
2982.81
1458.71
2837.67
1469.82
2907.22
3543.14
1814.95
664.358
1435.97
589.767
3158.79
2129.61
1537.97
1892.65
1288
850.335
1395.48
3145.87
2567.5
1950.03
1993.08
1439.47
671.257
1055.75
939.523
918.191
1218.23
1594.56
887.774
819.313
917.127
850.835
912.66
1659.2
1249.11
1143.67
2269.03
1032.93
982.259
1365.99
688.136
1010.01
1090.7
1015.12
1117.63
1180.08
902.741
612.413
752.489
825.37
979.473
1071.96
948.527
704.478
1299.69
733.808
624.935
770.007
3721.77
633.106
707.027
634.564
675.456
784.254
838.029
3852.79
741.42
914.326
757.917
905.384
852.135
2640.55
579.572
796.408
665.24
644.316
883.645
1407.49
1115.86
934.088
901.923
870.115
1617.76
1073.59
1186.69
972.872
942.31
977.585
1112.82
1046.4
756.207
1851.21
1713.03
2207.38
3128.6
1404.02
277.754
636.791
3090.68
3139.59
359.576
1414.35
287.54
289.873
302.569
704.431
233.335
1290.14
SCALARS SignedDistance double 1
LOOKUP_TABLE default
47.8227
49.3148
37.9888
34.171
39.2363
46.6679
51.7702
34.2137
52.4558
45.9711
52.8067
51.042
113.555
44.5355
56.7202
57.6114
47.7222
27.227
32.5343
36.9795
59.9123
58.9228
42.9739
67.5909
36.0517
35.3821
46.9962
50.5971
37.1872
46.8494
47.4901
33.8138
47.3494
34.6437
29.4748
31.0347
45.5949
37.4296
38.5014
47.1754
43.25
51.1215
65.3807
77.1001
57.48
47.0091
53.1475
55.2322
49.5341
51.4588
45.1128
51.7684
48.2812
49.4634
58.0119
46.8528
51.0174
54.0569
40.4713
46.3279
41.3775
40.5114
31.1292
35.5275
29.6952
33.3023
45.9341
33.7916
37.6631
52.1233
51.8741
47.6274
75.023
71.7336
70.283
97.1394
52.4056
58.3229
54.7077
44.426
48.5608
50.8646
49.3793
45.8835
38.43
39.5975
44.6309
39.2153
35.7702
37.534
32.735
49.4073
49.2921
55.3016
50.7722
64.8794
49.2264
42.288
40.0438
53.5139
32.3378
35.2174
76.4634
40.4781
42.8957
32.9116
33.9089
44.2824
32.9228
42.7213
49.5381
58.4394
62.063
43.0443
49.23
40.5836
44.6846
46.0689
24.9902
28.3384
33.1708
42.3556
34.7181
23.6633
40.9046
33.9476
42.9646
53.3631
33.5493
29.7279
32.2885
33.4192
50.6088
52.3084
50.9166
38.7805
44.232
74.0984
50.3038
53.7157
46.4446
49.8004
45.6162
61.7876
51.6309
48.7474
48.9687
34.6598
38.2962
38.4731
43.1253
30.2744
47.7414
50.1214
40.1112
53.0253
37.3766
39.7457
34.3075
75.9711
56.3321
51.5476
52.5297
58.4253
53.2524
109.509
69.1533
80.6187
59.0094
66.0185
59.916
49.5989
51.8119
52.4217
48.6855
50.3678
44.9907
87.8661
55.0892
71.8983
47.587
48.6999
45.5837
53.0327
50.2643
52.1003
44.7399
48.718
48.5606
58.0168
52.3434
56.7864
53.3093
50.6062
54.6079
54.5205
46.8918
51.1113
50.1768
48.0968
50.1767
58.0185
55.2699
54.0129
54.7457
57.8225
50.4413
51.842
52.0711
48.8778
50.5407
46.5456
55.0655
52.0292
54.1049
54.9908
55.5048
48.832
46.0026
43.0798
41.4055
40.8328
40.7581
39.4957
35.4426
46.1533
41.3635
33.4689
38.2097
34.7396
40.8353
46.6487
32.7465
29.5495
32.3421
28.3684
32.7429
33.8401
33.1409
33.1281
29.4024
48.4894
41.7705
34.2939
40.4214
43.9528
36.2641
35.5869
57.9722
39.1001
46.2907
34.7784
32.9727
37.8969
33.3228
33.7259
32.2433
35.7684
53.9424
57.0317
50.4778
51.7879
49.464
62.3189
40.8036
57.1317
50.587
31.7432
46.4062
43.4142
52.2124
65.3162
62.8315
71.6992
86.3696
56.788
62.0451
94.2862
88.4072
79.7005
69.7849
65.2137
53.5538
51.493
107.485
61.0406
54.5665
53.2395
83.6241
69.3169
64.5725
77.1279
54.521
50.1084
55.1647
59.4428
56.7506
58.7466
64.0222
45.0059
47.0114
47.0956
47.5674
43.1677
48.0702
49.806
48.5328
47.3118
45.0961
53.8861
49.4523
53.0887
43.7914
48.073
46.9746
52.0321
49.6162
53.5119
42.6358
42.8894
41.3732
40.6235
37.737
39.8092
36.6768
47.955
45.7187
39.7905
42.2691
42.3166
43.7187
41.9586
36.5526
36.3994
34.0469
35.6753
35.4201
34.9002
33.0419
36.0264
36.5796
38.5369
36.9572
37.7759
51.2026
50.3577
52.0547
52.536
48.3568
50.4146
49.8772
62.8592
62.5566
48.7717
51.0593
47.7695
54.4909
54.5602
45.3724
44.2132
41.8074
66.4818
50.3427
55.9253
44.8144
46.4151
48.6305
50.3591
49.488
47.9369
50.083
53.228
38.1749
41.9821
48.3063
44.7701
42.2089
33.4997
32.5242
36.8805
34.587
35.4279
32.0637
33.2831
74.4942
48.1948
48.4159
43.3281
46.8539
58.3845
38.1065
40.8482
35.9202
34.3821
35.2211
38.1554
32.5796
34.9648
35.0277
30.6879
32.2588
31.5387
34.8413
42.6832
37.8776
43.9564
36.031
48.0135
42.2281
37.3627
48.0517
49.1471
51.319
42.1646
48.8585
35.9776
50.9908
54.1616
45.7788
30.6563
38.8887
42.0026
41.7782
63.244
62.6056
44.5521
45.6888
52.081
36.1177
42.2052
35.6279
43.8225
44.8113
47.1442
36.4393
42.6424
38.8247
45.3393
45.1004
44.8133
35.7949
33.1831
33.9465
24.9981
24.0118
25.6241
32.6491
31.0486
31.1419
42.8148
34.563
33.1763
65.6912
33.2889
37.887
43.927
35.8165
67.0272
51.4849
31.1374
35.0674
27.5718
28.5579
24.6747
34.5235
29.3954
35.0799
67.143
65.5376
64.2142
69.6023
35.5458
34.7551
46.5132
37.4776
46.8927
40.9688
45.4247
33.9337
30.936
41.9204
35.3899
32.3447
31.8736
34.5362
34.538
32.1966
33.95
31.4711
33.32
35.6633
35.5612
59.7073
61.1478
59.5498
40.4251
52.1459
42.7166
42.7977
47.133
39.5476
44.4269
36.2027
44.7191
33.7294
37.3527
35.6853
32.6101
44.4944
39.5268
42.4384
70.675
69.0038
69.2032
78.84
57.8925
52.4554
42.1106
61.2036
69.7391
51.738
44.0852
54.4972
46.0215
45.2681
81.3146
61.0205
42.0485
45.2132
43.3315
43.0449
41.3892
44.5437
45.4602
57.5883
53.1832
68.4187
51.0794
49.5188
52.2764
49.3669
52.3295
47.6075
47.9151
45.8739
46.778
50.6131
49.1819
52.1596
55.2178
51.9352
49.3816
35.2174
33.5056
35.931
33.1162
35.4749
42.3791
39.1257
41.028
39.1386
35.5831
42.2808
36.1868
39.8125
40.1759
38.9398
36.0606
37.5461
35.4339
64.186
36.4909
44.2309
49.2312
48.1355
31.5811
34.89
31.4984
26.2608
28.2227
49.3948
47.8586
48.1469
47.4757
42.612
39.2196
43.3536
47.277
69.0773
41.7636
52.967
79.3457
74.0401
38.8498
44.7654
41.4431
36.5235
36.9741
73.2139
64.0337
78.7077
64.174
47.8476
41.0549
45.561
46.7456
43.9568
40.3784
41.2383
38.8602
34.424
47.5059
36.3728
41.0428
45.9739
42.7498
32.764
31.7679
32.9815
32.779
36.9125
37.2041
35.5334
32.8505
49.4271
56.289
49.9064
51.0325
65.017
56.479
53.1965
53.8064
59.0178
72.5323
50.4336
55.1006
53.1599
51.1667
50.9644
75.7093
57.7047
68.4224
