# vtk DataFile Version 4.2
vtk output
ASCII
DATASET POLYDATA
POINTS 642 double
-222.777 394.465 47.385
223.545 398.446 46.6804
-225.984 -340.008 51.9854
230.066 -344.645 52.3083
0.546335 -212.63 440.757
0.468419 242.193 409.971
0.659914 -183.406 -292.612
0.374733 265.124 -322.031
353.918 34.3151 -171.22
349.885 26.7689 276.236
-346.366 34.1882 -167.798
-342.389 26.9134 272.559
-322.227 233.864 167.579
-204.613 153.972 392.954
-117.382 341.817 242.174
118.969 344.482 244.377
0.527529 465.518 45.7602
137.902 396.427 -170.908
-135.348 393.555 -169.176
-214.908 165.214 -300.178
-344.001 246.532 -79.4249
-385.956 31.8337 51.1884
207.645 155.51 396.351
316.782 231.022 168.119
-217.223 -111.707 410.124
0.794705 27.4506 498.565
-332.719 -182.279 -73.7636
-337.792 -186.673 194.615
0.665888 34.2497 -385.268
-205.934 -91.2678 -288.952
347.537 249.133 -81.8001
217.375 166.494 -302.535
346.477 -190.883 196.178
220.934 -112.88 413.269
141.924 -342.735 287.046
-140.603 -340.952 285.595
0.266414 -402.86 52.1669
-133.344 -321.604 -159.695
135.618 -323.789 -161.177
208.662 -92.6518 -291.215
339.832 -187.936 -76.2489
393.827 27.8441 53.9416
-286.498 323.486 111.822
-232.449 299.899 210.562
-177.534 386.486 149.081
-285.764 92.8773 343.772
-272.805 194.986 294.026
-338.476 129.11 231.751
-62.8118 301.995 340.217
-167.967 260.413 335.593
-105.989 205.27 415.722
-67.7999 425.695 148.937
-115.938 449.252 46.0247
64.2574 302.653 340.776
0.593259 358.329 255.76
118.615 452.012 46.2025
69.5814 426.758 148.786
178.208 389.427 148.772
-73.0053 458.914 -65.6219
-187.499 412.535 -62.9505
191.499 418.216 -64.3434
74.3059 460.497 -66.031
-70.6222 341.302 -258.099
0.465597 412.871 -181.787
71.7997 342.228 -258.939
-254.466 332.676 -131.952
-297.513 334.801 -18.2097
-113.318 221.952 -325.999
-183.317 289.93 -247.728
-360.666 147.464 -129.107
-294.778 215.987 -198.618
-294.551 100.339 -244.611
-353.86 253.701 47.4445
-374.688 40.9319 -60.2507
-394.456 147.485 -17.9582
-371.34 147.361 109.513
-372.872 26.6656 168.631
229.16 298.573 210.878
287.757 325.176 111.724
107.913 206.206 417.728
170.541 262.338 338.001
344.68 130.154 233.903
276.883 196.839 297.313
290.539 93.6114 347.26
-109.46 96.2163 464.127
0.708881 142.12 468.824
-294.01 -44.3341 350.983
-220.725 26.9482 417.943
0.153853 -92.5492 482.153
-112.244 -43.4901 471.521
-117.139 -170.956 444.944
-371.09 -80.7261 122.798
-352.119 -86.6077 240.988
-341.361 -78.5212 -123.732
-375.481 -82.7391 -12.7338
-288.284 -267.523 127.585
-347.732 -193.158 51.189
-293.284 -272.895 -15.0599
-224.62 33.5832 -314.98
-289.202 -30.9358 -239.526
0.533698 151.063 -371.762
-114.437 103.746 -365.545
-108.424 -145.258 -306.57
-112.518 -35.3951 -357.654
0.376165 -80.4179 -358.211
185.76 292.361 -250.204
114.53 222.9 -327.497
298.497 336.541 -19.6479
257.131 336.373 -133.813
299.704 100.545 -247.788
297.606 218.159 -201.734
361.909 145.93 -131.069
294.507 -271.843 128.741
262.824 -282.111 247.68
194.363 -357.316 177.743
298.368 -45.024 354.079
303.747 -162.359 317.396
361.142 -88.427 243.922
75.4638 -292.785 380.797
193.54 -241.888 371.669
118.587 -172.756 446.798
74.4097 -398.605 180.58
121.786 -392.704 51.5531
-74.4195 -291.674 379.609
0.397826 -358.101 297.25
-119.659 -390.498 51.7273
-73.5556 -397.45 180.444
-190.883 -353.381 177.211
74.2165 -387.198 -60.416
191.306 -351.443 -60.0712
-188.132 -347.721 -58.8915
-72.9992 -386.791 -60.3225
70.7764 -266.697 -239.313
0.351766 -335.767 -169.295
-69.4234 -266.359 -239.091
253.733 -271.225 -127.923
299.902 -277.64 -16.2325
109.741 -146.58 -307.808
179.667 -223.677 -233.589
346.887 -77.9738 -124.508
286.877 -152.21 -188.797
294.245 -31.8398 -242.734
355.364 -198.39 51.2324
382.862 37.5763 -64.0392
387.046 -84.8448 -13.6902
379.256 -82.2119 123.82
383.442 27.1617 171.488
113.829 -43.0706 474.927
224.344 27.4234 422.251
111.381 96.6005 467.186
-259.469 -279.192 247.549
-191.221 -239.576 368.907
-298.787 -161.231 314.468
-176.626 -221.319 -230.927
-248.738 -267.36 -125.221
-282.551 -148.899 -185.984
227.696 33.5378 -317.828
113.47 -35.5411 -359.007
115.283 103.901 -367.302
368.92 137.178 111.873
390.982 148.855 -19.8803
355.153 255.267 47.2167
-258.152 361.647 80.581
-235.338 359.375 131.958
-201.783 394.382 100.27
-281.119 270.99 191.666
-262.649 318.013 161.566
-307.977 280.775 140.261
-149.683 371.926 190.368
-208.855 349.551 177.918
-176.107 321.872 225.804
-317.426 60.4049 310.613
-316.934 112.22 289.798
-343.792 79.4443 253.929
-242.609 176.403 346.363
-281.926 146.135 321.592
-247.883 124.292 371.431
-328.11 182.51 198.026
-308.839 163.903 264.858
-296.463 213.374 232.971
-31.8417 275.081 377.499
-85.1121 257.658 381.666
-52.809 225.682 416.345
-143.991 301.885 298.108
-116.92 284.002 340.658
-91.3654 321.887 299.855
-156.941 181.214 407.846
-139.45 235.58 378.16
-188.202 210.536 367.944
-253.571 249.211 257.566
-223.727 230.63 318.202
-201.208 278.938 280.697
-148.511 421.607 99.6231
-169.831 424.861 46.4176
-95.1817 390.876 192.449
-122.623 409.833 149.85
-59.9774 462.782 45.9805
-91.9288 442.422 99.834
-35.7536 451.323 99.2961
32.9098 275.326 377.868
0.450215 306.46 344.891
60.9807 355.245 253.438
32.2869 331.873 305.585
93.2879 323.575 300.373
-31.0111 331.336 305.503
-58.8247 354.072 252.336
172.636 429.854 46.2466
150.858 425.712 99.8854
202.584 397.956 100.076
36.9972 451.883 99.3696
94.0907 444.405 100.192
61.3495 463.83 46.033
149.927 373.334 191.207
124.51 412.779 150.035
96.9628 392.103 193.279
-33.1876 398.94 199.856
34.0456 398.421 199.731
0.384311 428.898 149.615
-153.851 438.298 -9.0077
-207.19 407.221 -7.76996
-36.9449 470.082 -9.65729
-95.9982 460.287 -9.76099
-163.293 407.308 -117.181
-131.994 441.35 -66.094
-105.95 431.643 -119.452
209.764 412.674 -9.0219
157.352 442.643 -9.38638
107.79 433.846 -120.426
134.742 444.438 -66.7954
166.598 411.274 -118.788
97.9477 462.509 -9.94373
38.0569 470.983 -9.7783
-35.426 305.866 -293.816
0.370872 345.593 -262.945
36.2544 306.217 -294.245
-69.833 409.211 -179.51
-36.2088 381.29 -223.055
-104.2 371.192 -216.298
106.053 373.049 -217.584
37.1302 381.648 -223.263
71.1394 410.523 -180.203
0.511543 463.477 -66.9619
38.1096 443.061 -126.567
-37.0345 442.147 -126.172
-246.095 376.258 -40.9507
-263.154 368.207 14.267
-196.875 366.446 -152.166
-223.02 375.304 -98.9483
-324.069 293.406 -49.5631
-279.07 336.545 -75.8731
-303.653 292.922 -107.496
-57.3395 245.537 -327.348
-92.7558 284.95 -296.325
-200.713 229.155 -277.117
-149.801 258.353 -290.317
-166.256 194.989 -317.098
-128.728 319.027 -256.319
-160.905 345 -211.731
-353.979 90.6398 -148.899
-329.148 124.556 -186.839
-324.09 66.8592 -208.137
-324.071 233.362 -141.989
-333.523 183.082 -166.538
-358.566 197.046 -107.483
-257.894 133.473 -275.734
-295.356 159.381 -222.562
-256.07 191.594 -251.558
-222.287 315.367 -192.794
-242.826 255.453 -226.705
-278.779 277.452 -168.901
-296.365 333.641 47.644
-355.55 254.355 -15.5868
-330.172 296.505 14.6488
-323.752 291.607 80.3243
-342.522 246.807 109.259
-364.898 38.3788 -117.261
-373.494 94.9884 -94.802
-393.122 99.6428 11.4172
-390.003 100.084 -38.3713
-381.244 39.4526 -2.73084
-381.957 148.871 -72.9932
-377.283 196.903 -49.6916
-361.316 79.0167 203.538
-362.505 26.9142 222.41
-356.7 191.492 139.93
-353.812 136.889 168.949
-382.164 26.2263 109.418
-369.342 83.7151 142.255
-377.583 91.9058 78.0491
-382.033 201.418 14.1599
-390.731 150.577 43.6084
-374.007 199.505 79.9257
236.069 361.594 131.761
259.136 363.995 80.5829
175.453 324.618 229.018
208.432 351.841 177.514
308.34 283.315 137.616
263.044 320.427 159.306
277.74 268.038 190.742
54.1708 226.001 417.146
86.8684 258.488 382.921
191.132 212.467 370.896
141.775 237.108 380.441
159.357 182.589 410.74
119.009 285.416 342.173
145.834 303.97 299.785
350.766 79.6782 256.74
322.607 113.307 292.89
323.473 60.2855 314.071
299.544 211.561 238.258
313.87 165.248 267.691
332.172 179.216 206.406
251.695 125.661 374.976
286.557 147.862 324.9
246.373 178.411 349.67
202.712 280.3 284.516
226.997 232.72 321.253
255.778 248.722 262.888
-53.6618 176.384 447.055
0.566906 194.748 442.589
-159.782 127.234 432.51
-109.232 152.696 443.603
0.798633 85.6208 487.909
-54.8173 119.795 471.486
-55.1799 62.5693 486.891
-319.408 -9.24722 313.066
-292.58 26.4369 350.138
-221.482 -42.2886 417.638
-258.86 -9.19861 386.394
-259.22 -78.7505 383.653
-256.285 61.3167 383.97
-215.817 92.4138 409.83
-0.166022 -154.877 462.811
-58.927 -134.9 466.66
-60.7071 -194.916 449.223
-55.9006 -7.51016 492.872
-57.0428 -68.3949 482.189
0.769893 -30.7763 496.649
-169.981 -143.224 432.025
-116.183 -108.624 459.642
-167.417 -80.1441 445.132
-167.67 62.3388 446.518
-170.12 -8.49621 450.026
-112.282 27.7611 475.527
-365.561 -27.7472 206.269
-348.84 -30.3906 257.32
-384.07 -24.9078 86.9199
-376.203 -25.4046 146.175
-349.091 -139.002 219.577
-362.038 -85.2317 185.536
-356.838 -134.663 161.758
-345.69 -18.1975 -150.935
-357.271 -19.3149 -92.7668
-360.318 -134.347 -44.0045
-362.436 -84.6135 -65.9252
-341.576 -133.509 -98.4583
-376.466 -26.0262 -33.2321
-383.772 -26.8684 20.292
-260.377 -308.388 89.2937
-295.893 -275.811 51.731
-262.807 -309.915 17.8442
-337.609 -189.389 123.638
-322.763 -233.851 88.115
-319.187 -232.205 164.312
-316.361 -230.085 -45.7562
-324.735 -235.213 18.4775
-345 -190.736 -11.5759
-378.037 -82.5049 51.6172
-368.604 -140.183 17.951
-363.624 -138.033 86.9363
-296.74 33.7116 -246.599
-321.146 1.15136 -206.123
-223.365 99.9201 -312.832
-262.4 67.668 -283.538
-250.575 -61.1364 -267.523
-260.03 0.145177 -280.655
-219.025 -30.9965 -306.329
0.419848 208.614 -349.538
-57.7754 188.633 -354.231
-57.7072 69.3877 -381.735
-58.0991 127.877 -373.19
0.68643 92.5728 -384.44
-115.705 163.392 -350.617
-167.479 136.383 -338.291
-56.2236 -165.694 -303.589
-55.4035 -113.661 -338.859
0.510839 -130.401 -332.952
-162.475 -65.8676 -327.842
-111.542 -90.9707 -337.168
-158.311 -120.041 -301.956
0.489377 -24.3627 -375.716
-56.932 -58.7377 -362.326
-57.2796 -1.52432 -376.248
-172.902 68.7544 -345.903
-115.329 33.5884 -368.184
[...]
POINT_DATA 642
SCALARS Mean_Curvature double 1
LOOKUP_TABLE default
0.00552986
0.00506932
0.00601759
0.00599553
0.00256111
0.00643211
-0.00302368
0.00513764
0.00629093
0.00600898
0.00656613
0.0056759
0.00395114
0.00500557
-0.00117774
3.36437e-05
0.0035571
0.00556545
0.0054824
0.00511721
0.00390052
0.0036597
0.00503815
0.000755795
0.00388384
0.00667168
0.00493856
0.0061417
0.00501159
0.00536191
0.00574587
0.00493413
0.00726037
0.00442628
0.00527467
0.00533687
0.00249517
0.00533638
0.00538474
0.00527749
0.00620529
0.00440803
0.00544074
0.000556022
0.00538838
0.00511268
0.00464562
0.00466078
0.00496929
0.00500191
0.00492969
0.00555702
0.00584155
0.00468705
1.49533e-05
0.00578633
0.00530646
0.00537538
0.00655807
0.00524786
0.00666669
0.00639803
0.00478153
0.00357064
0.00469834
0.00491125
0.00634121
0.00424259
0.00407258
0.00594114
0.00491308
0.00511532
0.00477396
0.000569324
0.00946025
0.00285099
0.00306824
-0.00220184
0.00579999
0.00499146
0.00519225
0.00470529
0.00510303
0.00486368
0.00479275
0.00518275
0.00559833
0.00471568
0.0036241
0.00330962
0.00609776
0.00106295
0.00595503
0.00206317
0.00463321
-0.00258
0.00522681
0.00554863
0.0057004
0.00520419
0.00459015
0.00534186
0.0033084
0.00550461
0.00472957
0.00417678
0.00419543
0.00507813
0.00455719
0.00474665
0.00526796
0.00347279
-0.00277074
0.00415584
0.00641799
0.00336434
0.00563854
0.00611177
0.00552865
0.00537921
0.00682812
0.00856568
0.00532957
0.00545564
0.00177155
0.00522841
0.00861713
0.00626846
0.00483596
0.00545996
0.00543592
0.00569261
0.00459242
0.00259083
0.0054679
0.00521482
0.00544682
0.0031575
0.00544765
0.000381051
0.00525951
0.00519231
0.00572434
0.00250455
0.00882662
0.000640454
0.00547779
0.0039607
0.00505788
0.00496442
0.00636125
0.00517904
0.00668233
0.00526959
0.00525455
0.00541178
0.00562735
0.00528251
0.00512294
-0.00180696
0.00700633
0.00584395
0.00530998
0.00553545
0.00477235
0.00297006
0.00592391
0.00544081
0.00467183
0.00640206
-0.00336334
0.00517211
0.00504707
0.00509331
0.00501973
0.00507001
0.00505741
0.000128977
0.00458099
0.00274455
0.00499585
0.00493796
0.00479867
0.00463004
0.00521596
0.00501431
0.00499507
0.00508649
0.00498569
0.00337155
0.00489323
0.00444709
0.00460508
0.00417023
0.00374853
0.0051104
0.00597427
0.00599893
0.00530986
0.00486758
0.00553963
0.000387844
0.00510238
0.0049401
0.00525044
-3.73684e-05
0.00534611
0.00556902
0.00471907
0.00521472
0.00602177
0.00560636
0.00370945
0.00580757
0.00386769
0.00459488
0.00350452
0.00288187
0.00596947
0.00429588
0.00606974
0.00654457
0.00496627
0.00659636
0.00532877
0.00515792
0.00649274
0.00509001
0.00626589
0.00513036
0.00633314
0.00613708
0.00487671
0.00439795
0.00479815
0.00566785
0.00467643
0.00526429
0.00521416
0.0043595
0.00556728
0.00432298
0.00493099
0.00481968
0.00485696
0.00559308
0.00417252
0.00409147
0.00494381
0.00465614
0.00499078
0.00388576
0.00480827
0.00372437
0.00432138
0.00483416
0.00476006
0.00421669
0.00358049
0.00228243
0.0048804
0.00446293
0.00732986
0.00633564
0.00519442
0.00273919
0.00346411
0.00445101
0.00442641
0.00500794
0.00537178
0.00577647
0.005795
0.00540696
0.0047489
0.00601905
0.00263131
0.00677434
0.00649859
-0.00236645
0.00690709
0.00661649
0.0057313
0.00574564
0.00782126
6.8674e-05
0.003829
0.000271259
-0.00337155
0.00674655
0.00810162
0.00746529
0.00553178
0.00508696
-0.00187389
0.00609795
0.00690681
0.00668441
-0.000181291
0.00457534
0.00490583
0.00512521
0.00519168
0.00505478
0.00522591
0.00471551
0.00491323
0.00500559
0.00483546
0.00360319
0.00494084
0.00376903
0.00501125
0.0051617
0.00512027
0.004869
0.00523104
0.00445722
0.00492874
0.00530698
0.00489441
0.00479581
0.00546673
0.00494643
0.00524786
0.00237036
0.00470503
0.00457964
0.00281951
0.00490237
0.00507707
0.00504464
0.00240923
0.0038027
0.0072601
0.00666461
0.00339227
0.00612144
0.00589492
0.00328579
0.00405412
0.00481967
0.00414994
0.00526186
0.00425864
0.00327429
0.00442045
0.00300898
0.00694557
0.00152236
0.00371049
0.00594942
-0.00317848
0.00631111
0.00383765
0.00556754
0.00379679
0.00388341
0.00367857
0.00534429
0.00537769
-0.00149056
0.00509561
0.00794823
0.00536048
0.00534993
0.00476299
0.00315314
0.00682362
0.00349512
0.0056677
0.00517416
0.00562422
0.00507744
0.00555963
0.00541572
0.00548288
0.0032789
0.00457584
0.00566259
0.00471866
0.00533131
0.00517612
0.00543219
0.00129427
0.0054874
0.00476642
0.00545062
0.00522197
0.0048783
0.00435171
0.0050813
0.00463325
0.00522587
0.00525394
0.00555595
0.00473669
0.00385625
0.00476195
0.0046238
0.00463174
0.00449661
0.00403677
0.0047711
0.00490986
0.00503534
0.00538749
0.00468051
0.00453419
0.00487239
0.00619556
0.00349486
0.00518734
0.00351814
0.00324099
0.00493859
0.00599261
0.00447033
0.00542943
0.00430401
0.00493508
0.00446332
0.0037787
0.00483807
0.00139283
0.00629143
0.00756922
0.00759294
0.00515561
0.00745741
0.00476138
0.0035227
0.0059666
0.00238112
0.00594073
0.00459353
0.00581198
0.00730175
0.00594105
0.00582813
0.00601609
0.00533329
0.00799095
0.00536625
0.00544901
0.00548248
0.00536348
0.00580068
0.00533691
0.0048108
0.00501416
0.00524234
0.000786464
0.00534484
0.00503101
0.00652491
0.00439159
-0.000301814
-0.000259418
0.00624039
0.00164313
0.00510705
0.00621081
0.00532134
0.00611003
0.00512664
0.00531381
0.00078885
0.000481794
-0.00062536
0.000295459
0.00521757
0.00555096
0.00637528
0.00562455
0.00582842
0.00562509
0.00502447
0.0055481
0.00553295
0.00461723
0.00627507
0.00543032
0.00558628
0.00560494
0.00555022
0.00562234
0.00543295
0.00551043
0.00544046
0.00582193
0.00467438
0.00449463
0.00200908
0.00474196
0.00488371
0.00512813
0.00566384
0.00526269
0.00494838
0.00573212
0.00309878
0.00476741
0.00499937
0.00542544
0.0053366
0.00522497
0.00541351
0.00572285
0.00537806
0.00530324
0.00170597
0.00447928
-0.000885142
0.0036267
0.0047538
0.00515416
0.00537283
0.00587553
0.00436902
0.00517756
0.00609139
0.00243122
0.00381909
0.00545549
0.00313479
-0.00176621
0.00530078
0.00563944
0.00541411
0.00533041
0.0055262
0.00593598
0.00536088
-0.00198443
0.00792148
-0.00181776
0.0034049
0.00103014
0.000741538
0.00480262
0.00421972
0.00524786
0.00522957
0.00362455
0.00280319
0.00281624
0.00116323
0.00602217
0.00472588
0.00279794
0.0033672
0.00117668
0.00317837
0.00275787
0.00443013
0.00699174
0.00482221
0.00480811
0.0046229
0.00427655
0.00290696
0.00488638
0.00550413
0.00510943
0.00480686
0.00488074
0.00486747
0.00490328
0.00548606
0.0068374
0.00576314
0.00468682
0.00563834
0.00520704
0.00519542
0.00593617
0.00532573
0.00540191
0.00522411
0.00579292
0.0074693
0.00496824
0.00327902
0.00591995
0.00505556
0.00512089
0.00501611
0.00433439
0.00539069
0.00505992
0.00322094
-0.000444298
0.00541586
0.00508917
0.00546811
0.00539971
0.00523999
0.00419845
-0.00164797
0.00300321
0.00326388
0.00511507
0.00527303
0.00499437
0.00517533
0.00558776
0.00536835
0.00528424
0.00578789
0.00517225
0.00536169
0.00488505
0.00503222
0.00505745
0.0053612
0.00462871
0.00527717
0.00498364
0.00511365
0.00643228
0.005387
0.00508393
0.00538246
0.00585288
0.00200888
0.00245234
0.00461612
-0.00160354
0.00388428
0.00553225
0.00681761
0.00545892
-0.00214501
0.00542951
0.00660282
0.00584079
0.00573729
0.00552014
0.00784879
0.00697223
0.00710809
SCALARS CoVolArea double 1
LOOKUP_TABLE default
2818.65
2849.61
2959.71
3015.41
3216.08
2633.84
3166.19
3069.99
2621.27
2742.97
2610.18
2659.97
3447.66
3442.87
3947.07
3860.92
3729.35
3934.8
3892.05
3773.1
3662.89
3716.66
3510.39
3667.18
3856.22
3678.33
3399.18
3501.98
3770.66
3707.38
3625.07
3848.45
3600.58
3951.51
4148.82
4079.89
4160.54
3641.2
3691.26
3787.73
3505.69
3673.58
3164.1
3870.31
3118.01
3225.7
3517.62
3294.73
3025.32
3399.42
3287.71
3512.59
3410.48
3065.74
3965.45
3436.9
3552.56
3126.9
4030.82
3610.56
3612.63
4078.57
3730.64
4219.44
3764.38
3991.25
3411.82
3707.16
4087.53
3297.37
3908.53
3475.94
3567.53
3630.63
3121.62
3605.14
3276.89
4105.21
3118.83
3319.29
3401.72
3144.13
3474.48
3326.38
3831.6
3432.82
3475.68
3865.35
3933.41
4145.94
3768.14
3877.76
3241.3
3515.09
3438.12
3788.17
3702.39
3367.35
3777.72
3308.38
3710.84
3953.85
3529.43
3806.18
3416.32
4131.05
3739.79
3511.08
4060.9
3518.48
3975.38
3460.73
3900.79
4138.33
3754.2
3569.04
4034.92
3320.95
3982.02
4283.28
3810.44
4171
3794.02
3957.42
4441.57
3743.21
4142.5
3716.58
3985.46
3579.94
3508.76
3946.43
3445.65
3973.93
3406.3
3846.96
3481.77
3553.29
3851.89
3690.12
3855.12
3390.14
3849.05
3499.03
3484.48
3995.39
3211.74
4151.34
3930.04
3862.45
4006.64
4227.1
3885.48
3807.62
3743.33
3802.3
3844.88
3847.86
3983.48
4071.73
3422.93
3447.71
3250.72
3141.49
3288.23
3640.13
3189.32
3099.86
3363.93
3305.15
4101.23
3183.48
3138.69
2993.6
3452.11
3161.24
3191.75
3445.71
3289.17
3697.61
3090.64
3207.22
3200.87
3704.71
3069.03
3263.18
3234.84
3200.24
3463.7
4114.33
3870.68
4165.47
3368.01
3419.21
3690.48
3154.91
3393
3311.64
3685.34
3111.2
3058.01
3930.75
3305.01
3255.29
3290.05
3939.33
3399.65
3345.6
3301.04
3705.65
3323.69
3435.25
3365.47
3158.73
3699.78
4198.32
4239.65
4060.38
3549.9
3479.75
3927.75
3524.67
3622.51
3613.67
4021.35
3476.43
3564.32
4082.51
3676.49
3666.33
3585.72
3950.12
3667.82
3816.2
3682.82
4085.37
3821.97
3662.36
3702.61
3842.43
4123.53
4593.54
4674.08
4652.41
3593.06
3360.44
4035.18
3694.48
3400.33
3588.84
3861.48
3688.43
3750.99
4015.09
3737.17
3597.54
3742.44
4047.39
3299.93
3533.22
3323.07
3785.78
3429.6
3265.77
3479.58
3599.15
3963.78
4506.17
4488.04
4380.57
3335.29
3649.43
3345.2
3251.83
3405.18
3285.85
3302.33
3453.48
3138.42
3539.87
3104.25
3541.56
3267.31
3052.81
3429.15
3518.24
3483.28
3703.34
3988.94
3783.29
3648.85
3667.14
3144.46
3319.58
4116.91
3400.71
3155.66
3298.75
3888.34
3226.71
3240.91
3506.43
3231.41
3277.44
3100.58
3668.88
3113.52
3241.81
3268.33
3713.06
3208.3
3389.04
3281.95
3237.44
3507.88
4192.95
3842.31
4194.68
3408.57
3268.05
3691.63
3422.18
3443.56
3496.4
3818.61
3345.94
3423.01
3960.82
3561.06
3533.46
3401.69
3671.24
3881.41
3915.68
3785.65
3923.25
3869.04
3614.58
3678.3
3863.85
4087.74
4289.89
4471.28
4393.39
3294.56
3248.07
3649.23
3419.91
3118.14
3395.62
3744.62
3288.08
3769.43
3356.04
3407.71
3179.47
3652.96
3648.32
3685.5
3575.14
3410.29
3917.62
3623.72
3512.47
3282.06
3363.78
3478.45
4020.14
3865.17
4246.03
3340.73
3146.63
3801.72
3433.72
3382.77
3342.81
3628.5
3718.77
3769.51
3915.45
3683.92
3565.29
3676.91
3887.51
3636.54
3491.51
3560.89
3650.25
3422.53
3447.03
3507.82
3486.24
3879.41
4328.36
4352.05
4240.8
3786.01
3704.86
4081.14
3783.19
3648.61
3775.06
4062.09
3450.13
3625.44
3900.48
3639.41
3453.38
3714.67
4071.92
3312.43
3590.47
3300.62
4021.63
3675.05
3553.5
3322.83
3568.28
3826.79
4574.66
4460.19
4543.68
3791.41
3837.64
3815.32
3873.27
3655.25
3584.03
3736.26
3696.66
4236.04
3442.83
3508.41
3363.99
4009.68
3595.4
3597.65
3219.31
3446.4
3823.83
3886.97
3901.73
3805.21
4285.49
3976.5
3900.98
3757.77
3872.11
4120.15
4638.54
4658.26
4763.17
4011.23
3695.73
4140.36
3850.37
3818.57
4039.97
4426.19
3886.84
4082.02
4304.95
4044.51
3873.96
4053.08
4328.53
3650.03
3977.54
3772.6
4410.37
3986.86
3774.12
3652.5
3793.79
4074.07
4695.3
4682.58
4685.8
3604.53
3508.94
4009
3603.1
3511.36
3601.68
3882.96
3422.75
3551.91
3835.04
3555.82
3452.27
3564.52
3985.38
3574
3553.16
3561.37
3864.15
3563.11
3391.5
3352.68
3542.08
3824.09
4517.28
4447.31
4474.2
3590.25
3509.82
3831.46
3581.97
3335.38
3535.54
3696.61
3633.15
3550.35
4130.24
3609.25
3502.93
3450.74
3738.13
3336.73
3522.55
3223.24
3640.84
3580.92
3384.82
3464.42
3624.22
4160.01
4193.55
4375.81
4129.79
3695.09
3623.49
3423.24
3705.58
4038.22
3222.6
3708.4
3649.4
3630.98
3625.72
3491.82
3536.81
3369.52
3145.39
3868.71
3480.04
3358.51
3537.85
3681.43
4052.73
4066.25
4433.06
3999.47
4189.07
3936.43
3894.49
3905.48
3505.22
3748.62
3480
3624.06
4069.62
3428.73
3827.84
3507.34
3453.98
3750.1
4529.74
4332.85
4397.3
3765.45
4131.08
3638.77
3594.4
3747.55
3897.53
4040.79
3839.15
3939.95
4225.9
3419.93
3654.49
3348.98
3528.03
3920.82
4646.34
4538.33
4449.67
3531.97
3683.2
3418.68
3584.05
4069.31
3490.18
3639.81
3422.36
3492.89
3753.68
3378.34
4084.65
3538.17
3401.26
3568.66
4112.11
4075.36
4322.67
3414.3
3705.74
3420.47
3503.9
3881.44
3508.68
3878.62
3506.05
3469.4
3716.73
3780.91
3958.93
3714.09
3682.89
3902.66
4308.32
4381.83
4392.37
3123.03
3937.67
3519.68
3516.03
3924.65
3315.37
3522.74
3262.4
3350.91
3798.52
3409.92
3504.17
3177.46
3406.83
3652.31
3995.79
3750.19
3949.21
SCALARS SignedDistance double 1
LOOKUP_TABLE default
240.084
236.322
210.151
196.895
173.074
253.611
263.803
189.584
250.936
251.926
269.403
268.749
307.163
251.226
303.141
297.925
235.527
174.715
184.533
206.648
225.393
299.024
241.639
299.013
204.653
194.887
252.352
256.843
202.162
250.086
223.336
197.484
239.361
193.577
157.644
163.993
208.084
211.107
206.293
242.836
240.192
281.51
270.593
306.945
281.611
257.432
283.901
292.65
279.76
279.739
250.334
277.208
237.094
276.386
297.615
230.912
275.098
278.687
186.892
203.614
193.772
183.836
183.431
178.72
180.324
200.334
223.39
193.134
199.203
261.471
222.708
233.087
261.043
301.944
284.364
314.45
292.98
297.221
267.568
245.061
272.075
277.301
273.529
245.377
222.223
223.638
240.687
227.432
186.818
200.035
179.056
277.824
268.411
282.467
280.332
243.391
256.855
225.697
219.137
255.413
188.793
193.054
256.269
219.79
230.462
190.713
188.869
218.919
192.197
216.078
215.538
250.123
228.358
186.495
200.628
223.532
202.385
248.85
146.49
160.103
176.905
197.198
194.436
149.13
165.932
197.588
198.064
207.283
196.351
188.997
199.406
195.916
238.336
222.68
237.977
211.476
208.663
253.315
236.594
267.675
255.475
242.627
243.493
285.606
272.768
266.135
275.354
191.909
217.38
215.692
205.707
170.664
223.445
242.61
224.881
264.473
209.364
216.361
188.685
290.447
273.709
259.579
254.361
274.514
260.735
307.524
289.976
287.912
298.694
293.511
304.54
262.685
274.725
280.416
267.166
270.301
253.591
309.16
288.052
303.959
267.016
265.573
251.772
292.439
279.869
291.623
250.192
265.053
265.261
300.966
281.569
296.604
261.97
240.299
295.59
282.51
232.808
258.588
255.314
265.524
277.102
296.947
287.059
286.601
288.652
299.722
234.568
257.149
257.768
256.875
254.791
231.434
294.697
278.047
292.244
292.133
290.437
273.779
218.766
220.453
209.513
211.474
189.938
194.211
178.791
215.213
210.046
171.051
184.427
178.276
206.076
211.622
185.353
180.676
183.954
175.253
178.743
183.317
177.022
179.202
172.835
190.598
176.929
174.304
210.693
229.944
193.97
198.993
220.095
207.188
210.492
190.924
189.557
205.773
197.089
198.132
190.916
192.716
269.789
251.268
249.753
221.964
241.924
241.78
218.486
234.961
220.288
198.6
208.857
207.616
245.828
240.486
240.961
264.421
283.865
286.718
284.382
307.789
295.05
300.967
269.582
251.524
294.286
282.393
312.667
307.731
294.955
300.194
305.169
268.312
298.78
289.739
271.417
251.02
297.754
290.178
283.829
285.547
298.565
249.658
261.525
256.744
258.328
242.277
274.018
285.109
264.496
261.906
248.568
289.006
276.017
290.694
242.741
259.266
257.158
286.751
272.389
288.599
237.033
238.461
236.114
235.679
209.009
221.934
208.346
253.001
247.124
220.651
232.173
221.579
241.861
238.499
191.328
192.272
174.135
194.308
191.903
181.685
191.487
193.669
202.821
223.583
212.573
209.023
282.687
267.672
287.539
285.544
265.263
279.028
276.703
283.784
290.628
269.283
278.935
268.42
291.827
289.653
225.793
231.429
215.989
266.385
250.294
254.448
238.503
241.03
251.229
281.24
271.067
275.325
242.371
261.343
209.807
223.629
251.201
236.461
233.808
191.522
190.269
196.518
189.947
189.882
190.736
195.995
259.487
241.54
247.131
234.076
236.934
252.414
214.621
223.836
209.113
202.297
202.843
216.755
185.612
189.377
184.248
184.321
191.489
189.691
196.754
225.672
207.055
203.763
203.049
217.725
190.386
184.324
232.366
232.493
248.245
209.092
220.079
205.896
235.437
230.482
215.183
190.343
199.05
200.138
210.928
218.834
209.333
213.18
214.055
239.019
173.906
191.985
168.587
236.527
235.274
247.458
196.384
213.038
209.603
245.44
227.123
218.93
160.28
155.154
175.063
152.944
148.872
147.215
183.823
163.597
176.159
191.394
178.541
168.713
204.956
192.628
171.251
194.864
200.964
206.747
216.563
157.101
157.747
157.377
152.735
152.17
156.05
155.97
201.448
210.349
218.772
212.301
207.842
200.748
184.31
198.204
175.471
175.802
172.223
205.451
186.813
188.911
202.142
194.787
195.26
189.079
197.962
201.317
194.283
200.019
194.143
203.145
193.993
200.053
257.873
247.315
255.396
214.569
231.901
221.241
222.711
228.651
214.166
204.494
205.979
209.987
195.233
199.937
205.443
197.948
222.969
207.53
223.399
258.482
255.354
255.044
254.335
247.45
234.857
219.84
266.136
263.377
245.441
246.186
262.186
252.698
241.301
261.528
257.163
222.458
242.897
232.043
214.523
238.694
225.481
233.803
250.141
268.975
275.419
274.847
274.192
281.248
268.277
251.36
263.721
263.787
257.628
260.562
278.949
270.858
270.33
249.962
269.599
260.862
189.577
196.272
190.536
185.758
188.332
233.913
228.28
230.501
219.154
206.527
234.753
203.958
218.852
229.788
227.785
202.595
214.757
200.883
229.86
181.131
202.978
227.006
230.724
159.291
187.23
170.566
156.245
162.087
252.168
240.211
246.836
230.064
212.491
182.153
193.634
209.055
254.773
226.07
238.001
257.278
259.98
210.096
237.77
223.28
210.677
215.416
278.128
265.279
272.873
274.152
256.537
232.165
243.12
250.547
227.424
225.116
224.853
210.691
198.718
240.069
207.576
222.268
233.479
228.555
188.604
189.863
187.253
186.323
193.059
210.5
199.672
195.747
275.642
284.79
283.165
289.112
296.29
268.832
248.963
261.678
286.146
289.559
242.457
280.267
261.857
238.01
238.454
291.202
266.276
284.629
