# vtk DataFile Version 4.2
vtk output
ASCII
DATASET POLYDATA
POINTS 642 double
-127.461 245.581 -8.29153
125.473 255.607 -11.8902
-121.719 -215.9 40.7015
139.21 -223.669 41.0992
1.31446 -175.958 308.156
3.44499 99.0138 271.933
3.16524 -71.2031 -106.742
2.72222 195.892 -188.395
167.17 63.8725 -117.628
166.474 1.00455 207.026
-141.529 62.09 -116.158
-142.471 5.68294 206.081
-156.786 156.174 51.4204
-91.6791 60.8939 264.352
-32.7006 147.827 118.679
43.8589 149.045 124.756
1.04402 293.616 -28.445
87.0552 296.6 -99.7474
-73.6277 289.733 -96.7672
-114.465 117.694 -186.229
-185.143 192.978 -40.0145
-151.409 22.8266 32.0997
102.983 65.2157 270.684
129.685 127.501 59.041
-117.192 -99.46 287.309
7.27258 -2.52489 348.423
-150.942 -131.616 -9.83724
-138.335 -139.116 191.225
4.95587 62.1066 -227.692
-92.7876 7.50914 -166.682
182.189 192.157 -50.9991
126.127 120.02 -189.653
163.112 -140.977 196.64
133.681 -100.472 291.1
97.709 -238.222 240.768
-88.0427 -234.453 239.648
0.168444 -237.773 38.6302
-81.6607 -206.945 -56.2635
95.1855 -208.931 -57.7519
104.023 4.88089 -169.248
167.545 -142.209 -12.3141
171.964 3.98707 58.0705
-151.748 203.431 10.9572
-110.376 134.47 66.7046
-105.884 231.068 11.8545
-124.893 33.3043 239.265
-110.655 69.4675 207.998
-128.275 48.8181 179.633
-18.9216 118.132 229.594
-66.2219 96.5763 231.475
-45.6729 84.2513 275.93
-29.6688 255.34 16.8421
-53.685 288.984 -22.9541
30.5027 121.043 228.839
6.07262 147.077 130.249
68.8284 293.313 -23.4976
42.1922 255.378 17.4559
100.919 236.175 9.22245
-45.0129 316.531 -56.6151
-97.2462 277.223 -50.9198
104.861 295.105 -56.7726
56.3579 317.539 -56.8776
-40.5976 249.482 -153.343
2.07573 296.819 -102.248
48.6756 251.375 -155.257
-153.146 233.991 -71.4963
-167.98 221.967 -27.3324
-67.5202 156.272 -198.173
-102.386 209.015 -140.229
-168.271 171.214 -62.3203
-159.51 175.471 -97.9129
-139.819 84.7447 -148.127
-181.973 188.887 -8.13998
-138.024 83.6402 -18.715
-185.463 173.974 -32.9277
-139.713 166.138 45.2167
-144.886 0.634093 139.855
95.1706 143.494 86.8955
149.774 215.307 3.78119
57.9329 85.5057 279.074
76.0115 101.144 235.658
152.782 40.2755 183.531
122.443 71.0443 217.258
139.796 34.3113 244.717
-47.5579 38.114 312.999
4.72724 57.4838 315.252
-133.808 -50.9085 249.335
-106.497 5.79622 284.658
3.86033 -49.7521 341.91
-52.4678 -33.6761 326.244
-75.2394 -143.43 313.134
-155.923 -51.9396 98.3657
-141.692 -73.1409 209.426
-131.748 -52.4713 -50.7931
-156.019 -72.7831 16.2789
-140.222 -145.291 117.157
-153.788 -136.866 31.2421
-143.547 -179.149 8.68026
-114.666 57.5621 -187.737
-129.997 34.5703 -139.002
3.98505 107.449 -230.572
-68.6011 89.3409 -222.11
-70.3505 -38.3801 -151.604
-62.9333 26.2711 -206.544
2.38626 8.19744 -202.011
111.323 215.69 -147.209
74.6767 159.364 -199.401
169.714 228.75 -28.17
158.168 242.859 -77.7525
162.349 82.3367 -152.486
167.55 172.067 -107.441
169.033 136.748 -73.4476
157.39 -153.438 115.061
151.511 -193.654 215.39
115.073 -224.385 178.3
154.47 -50.9658 253.877
165.153 -128.945 244.099
166.638 -77.9201 209.05
62.8126 -216.785 299.592
124.529 -183.314 287.551
83.6242 -148.419 313.598
59.9223 -244.433 193.004
92.5102 -243.225 40.994
-55.9006 -215.098 297.14
1.6444 -238.05 240.852
-79.6146 -241.926 41.789
-54.333 -243.198 190.477
-101.009 -222.766 173.506
65.2219 -241.999 -15.405
124.682 -231.25 -15.4027
-109.614 -224.957 -13.0507
-58.6484 -241.875 -15.1148
62.5221 -167.485 -81.7135
0.661884 -203.502 -55.5468
-54.7107 -166.291 -82.3735
146.25 -185.477 -40.3132
164.716 -190.17 6.30675
76.7708 -38.0988 -148.901
100.262 -154.652 -81.6409
153.908 -42.6905 -52.6553
142.067 -106.85 -57.0736
149.996 35.095 -141.606
171.122 -142.939 31.9366
151.858 60.425 -45.3659
172.38 -85.2936 19.4937
172.039 -54.961 102.611
168.526 5.86795 152.787
58.828 -27.4804 336.165
118.156 4.6174 291.627
57.1106 37.2324 319.121
-131.543 -185.165 215.844
-114.262 -178.576 281.898
-140.071 -131.438 240.816
-88.0762 -149.032 -81.343
-127.876 -177.897 -36.2162
-129.163 -98.8967 -54.0137
129.521 57.8798 -190.981
69.3333 24.9584 -208.331
71.5031 89.1273 -225.681
173.598 81.2013 45.5861
177.79 166.487 -30.5955
172.779 194.342 -19.7313
-141.003 225.321 1.9325
-130.249 219.61 12.7735
-116.797 238.967 4.02543
-150.184 137.43 60.6863
-141.501 197.196 18.7655
-158.164 179.412 17.4309
-76.27 213.414 28.1856
-118.612 210.831 21.8624
-72.5287 142.106 93.1685
-135.747 19.4278 222.402
-130.186 37.8229 212.465
-137.436 23.0874 198.421
-104.501 65.3279 238.237
-118.492 53.1385 226.654
-110.53 47.0729 253.308
-134.814 108.513 124.231
-120.63 60.3708 192.944
-126.917 86.367 140.755
-8.02062 110.047 251.192
-32.4771 102.049 254.253
-17.8845 92.5001 275.412
-51.9448 112.395 208.838
-43.0124 108.333 232.141
-27.9594 123.151 208.845
-69.2896 73.6786 272.115
-57.9612 91.8591 254.225
-79.2892 81.1881 249.906
-96.7833 93.8842 164.455
-91.5044 83.6816 220.592
-80.3296 100.011 191.111
-78.0076 255.526 -5.21258
-89.5134 265.514 -19.4914
-31.8132 223.787 42.9161
-58.1003 244.505 11.9653
-37.6655 295.771 -24.0796
-43.011 275.616 -6.88821
-24.7225 277.58 -3.88543
16.6597 110.926 250.924
4.80427 121.102 230.827
30.4787 146.642 131.208
18.0699 128.613 210.649
40.601 127.273 207.877
-5.86973 128.042 211.342
-14.0468 147.995 127.768
90.856 278.509 -20.8288
81.4569 267.597 -7.63609
115.29 248.338 -2.31779
32.3944 276.546 -5.11197
58.9091 278.186 -7.46392
49.4288 297.61 -25.3816
72.2485 213.493 39.3653
63.9362 251.894 11.9544
41.1251 223.216 46.6156
-8.60861 222.675 54.2285
16.9037 221.47 56.0851
1.30241 253.943 24.6419
-73.0459 290.288 -40.411
-118.524 263 -29.4436
-27.5415 310.153 -44.535
-48.5389 307.288 -44.7977
-85.7785 292.037 -71.3916
-63.8469 307.675 -58.0779
-60.412 312.881 -72.0832
113.177 275.906 -39.769
85.6984 300.532 -43.0906
74.3082 317.332 -73.5173
81.2519 312.624 -57.9736
99.5903 303.139 -72.737
63.5964 309.318 -44.4284
34.7848 309.707 -45.6629
-19.8775 225.814 -174.393
2.47084 252.114 -159.069
25.6976 226.949 -175.673
-45.3774 300.515 -104.703
-24.1858 276.318 -130.022
-57.5112 272.842 -123.633
69.6823 276.62 -125.325
30.2703 276.119 -130.208
54.9875 301.828 -104.679
2.53556 312.949 -56.5292
33.6379 317.675 -75.572
-27.0433 318.272 -75.6845
-144.795 249.484 -34.3761
-149.543 236.331 -19.4344
-113.981 262.388 -83.4721
-130.543 258.959 -57.4646
-184.316 204.069 -33.4654
-164.853 230.612 -43.0383
-178.456 208.541 -54.6442
-35.7685 177.663 -193.699
-52.6223 209.576 -176.674
-107.648 162.747 -164.131
-81.3836 185.459 -173.502
-93.7625 135.501 -196.562
-69.5407 233.505 -151.716
-86.8368 249.383 -118.513
-146.19 102.905 -94.4893
-147.822 120.053 -104.822
-142.733 72.3878 -130.876
-174.963 187.942 -67.8864
-165.25 176.801 -80.0831
-188.72 191.865 -47.8839
-128.833 100.834 -168.741
-143.208 133.087 -120.896
-132.325 142.151 -141.452
-134.732 227.054 -105.348
-140.58 189.364 -120.647
-164.598 202.578 -87.9588
-160.864 215.069 -7.76118
-186.423 194.472 -29.8249
-179.379 199.31 -18.8123
-168.049 191.365 3.09092
-170.72 177.699 13.4537
-142.409 69.2429 -92.4452
-157.048 141.915 -47.4433
-178.091 129.966 -15.9289
-180.144 142.675 -20.9082
-161.486 58.1047 15.5678
-184.626 175.211 -33.1425
-183.883 184.191 -32.4259
-137.317 26.446 171.892
-142.774 6.20569 188.542
-159.256 161.069 44.4411
-126.601 80.3923 110.177
-151.95 -0.32885 83.2555
-140.396 40.4926 105.473
-157.541 70.2015 10.7666
-191.328 196.933 -28.8184
-177.887 170.5 -36.4872
-179.657 186.391 -2.4466
132.441 226.208 9.84007
143.664 231.488 0.00603932
68.1358 147.469 109.192
112.48 209.87 24.0133
149.103 199.666 7.23099
135.983 208.024 14.9793
115.343 138.079 67.8
27.5062 92.761 276.217
44.1577 103.88 255.092
90.1161 84.4524 255.786
69.728 94.3427 257.753
80.8421 76.7833 277.295
54.5102 112.705 232.606
60.3422 118.999 210.918
161.999 20.4768 195.93
148.839 36.7197 214.606
155.648 15.5772 225.543
125.732 80.7112 172.116
138.684 57.5361 200.29
136.973 69.64 153.779
122.821 51.4755 259.864
131.386 54.7982 233.596
115.59 68.55 246.027
86.9039 106.814 202.439
101.037 87.6646 228.721
108.952 94.1188 187.376
-19.0909 73.5909 296.68
3.58783 81.909 294.142
-73.3038 53.2644 288.905
-48.881 63.9785 295.448
6.16006 26.9635 334.478
-19.4999 46.5938 317.789
-17.4498 17.7998 335.123
-140.218 -19.2966 228.502
-131.415 4.29823 244.834
-110.717 -45.2645 284.654
-122.885 -20.5335 266.443
-129.131 -76.3166 268.614
-117.606 22.5378 262.83
-101.665 35.8405 275.651
-1.51125 -118.806 312.75
-42.1955 -103.74 317.04
-49.0078 -160.154 314.53
-14.4617 -10.6438 345.982
-21.9713 -39.8325 338.936
7.23425 -17.5641 354.377
-97.9356 -123.06 302.767
-70.1372 -88.6623 316.487
-90.4441 -71.4674 307.186
-79.5782 23.2035 301.548
-84.1297 -15.4689 307.977
-46.9869 5.71876 326.636
-143.655 -21.4296 175.503
-142.787 -29.8411 206.476
-157.717 -22.7012 73.9116
-154.172 -23.8937 114.182
-140.726 -115.06 201.751
-142.908 -63.353 161.76
-142.277 -96.1514 148.769
-132.827 27.5303 -102.552
-134.762 -0.742236 -49.6459
-155.259 -106.734 3.08825
-152.369 -76.19 -3.74386
-147.586 -106.582 -19.8265
-151.155 -25.1565 17.2174
-156.992 -24.337 37.3415
-125.402 -199.053 67.5386
-142.297 -178.945 36.0467
-135.478 -200.144 21.3881
-137.304 -155.355 107.396
-144.109 -155.697 58.4833
-130.973 -152.918 168.051
-151.112 -155.187 -1.70888
-152.775 -156.049 21.5391
-155.13 -135.281 11.9136
-156.927 -60.5541 44.3346
-156.028 -108.51 20.5876
-153.169 -95.2539 59.7369
-137.195 58.6621 -147.572
-135.965 46.7937 -128.371
-116.601 85.4207 -189.94
-128.535 71.1332 -171.097
-118.17 26.079 -154.768
-124.088 46.3701 -165.545
-107.838 34.306 -179.196
2.67496 146.383 -212.568
-37.7576 132.515 -218.206
-33.7693 74.7496 -228.277
-35.3626 98.5959 -229.227
5.66184 84.2346 -235.273
-71.5368 118.178 -217.666
-94.9138 104.919 -209.433
-56.3676 -46.0662 -130.531
-33.365 -4.58335 -187.758
3.03197 -8.38954 -183.203
-80.9728 16.1256 -188.156
-58.9754 4.22653 -188.445
-69.2627 -15.9187 -161.947
2.70834 29.564 -217.026
-34.28 15.5703 -207.12
-35.6911 38.9943 -219.847
-96.3433 71.9022 -209.228
-68.053 55.5709 -219.354
-91.3937 42.2658 -201.874
[...]
POINT_DATA 642
SCALARS Mean_Curvature double 1
LOOKUP_TABLE default
0.0224025
0.0285264
0.0192013
0.0190131
-0.00999106
0.0183452
-0.0103323
0.00129439
0.0333139
0.0212719
0.00961328
0.0229285
0.211813
0.0135045
0.000231711
0.00640906
-0.00728093
0.0217162
0.0151919
0.0150217
-0.0363335
-0.0328249
0.0161173
0.000824227
0.0116168
0.0141345
0.0109677
0.00991318
0.000632243
0.00712896
0.0117083
0.0119752
0.0105181
0.0124516
0.0147491
0.0178099
-0.00298069
0.0201896
0.0188426
0.0075147
0.00906496
-0.00234433
0.0244241
-0.0181216
0.00618583
0.0138731
0.0135178
0.000785323
0.010751
0.00572082
0.0145168
0.00909604
0.0144858
0.01306
-0.00480371
0.0207402
0.00891654
-0.00445733
0.043545
-0.00614861
0.0301895
0.0366233
0.011151
-0.00252352
0.0114108
0.0143619
0.0187756
0.00854609
0.00134658
-0.00101932
0.0228092
0.0152487
-0.232044
-0.0191765
0.323112
-0.0328795
-0.00103561
-6.96129e-06
0.0255804
0.0143203
0.00662759
0.00715985
0.00463452
0.0113529
0.0105911
0.0153294
0.00232259
0.0139659
0.00760638
0.00451144
0.0141739
0.00591573
-0.000300759
-0.00481579
0.00971408
-0.0443093
0.00781849
0.00977945
0.0204696
0.0205851
0.00865605
0.0129524
0.0512181
0.0153877
0.00941467
0.00602032
0.00550477
0.0319413
0.0209384
0.0230844
0.0125833
-0.0252743
-0.0453072
0.0247985
0.0119824
0.00476452
0.0189622
0.00215831
0.0222175
0.0164413
0.0100529
0.00646546
0.00970005
0.0214039
-0.0113205
0.0146623
0.00565597
0.0178682
0.0164087
0.0232813
0.0223878
0.0179639
0.0118453
-0.00727133
0.0131189
0.0196906
0.0264626
-0.0189781
0.0101069
0.00316243
0.024289
0.0162259
0.00185012
-0.0127051
-0.0070579
-0.000240295
0.0105666
0.00853548
0.00866089
0.010417
0.0134649
0.0187145
0.012582
0.00431923
0.0130658
0.00352306
0.0181686
0.0144154
0.0109239
0.0658721
-0.00616062
0.00158832
0.0154814
0.017781
0.0206812
-0.0452724
0.00323208
-0.0451201
-0.00653403
0.00818392
-0.00265187
0.0146753
0.0117321
0.00731154
0.0144533
0.0145066
0.0140727
0.0373114
0.0178642
-0.0850527
0.0115885
0.00943576
0.00822136
0.00553089
0.00813631
0.00905761
0.0134417
0.0121853
0.0129107
-0.00729994
0.00884518
0.00828348
-0.00291191
0.00147612
0.00115142
-0.00157169
0.0201673
0.00577605
0.00860395
0.00950285
0.0106924
-0.00104121
0.00712172
0.0158995
0.0126173
0.00474368
0.0119802
0.000543784
0.00739977
8.11795e-05
0.0125239
0.0145837
-0.0028524
0.000674652
0.00431378
0.011595
0.00905586
0.00856305
0.0126605
0.0259504
0.021237
0.01431
0.0261324
0.0268024
0.0373993
-0.0085175
0.0140842
0.036103
0.0384081
0.0353681
0.0142509
0.0112066
0.0091004
0.0114231
0.0100728
0.0216756
0.00597303
0.0100904
0.0118641
0.00208802
0.0151613
0.00580586
0.0252209
0.0300244
0.0308145
0.011037
0.00939723
0.0194145
0.0534312
0.0233542
0.0279583
0.00109059
0.0138876
0.00450332
0.00641248
0.0128629
0.0115514
-0.00239186
-0.00141347
0.00753856
0.0151945
0.017688
0.00111119
0.108482
0.0100343
0.00288476
0.00478455
0.0131388
0.0109578
0.0223414
0.0137016
-0.10356
0.0125889
0.00370997
0.0258794
0.00370543
-0.0157678
0.227184
0.0508579
0.0722917
-0.0103072
-0.158188
0.00248433
0.0106582
0.102845
-0.0246373
0.00349018
0.00287758
-0.022513
0.162654
-0.0502819
0.0269132
0.0241254
0.0235349
0.00102107
0.000204002
0.00494354
0.0152337
-0.00183128
0.00581154
0.00802012
0.0127531
0.0121747
0.0164494
0.0109619
0.00755344
0.0161073
0.00851091
0.00974489
0.00582327
0.0077253
-0.000870858
0.0170365
0.00987112
0.0139969
0.00647925
0.00802226
0.00615333
0.00830514
0.0191442
0.0130861
0.0138373
0.0123386
0.0085475
0.0134199
0.0134835
0.0113513
0.00275494
0.00974312
0.0142696
0.0143801
0.0142948
-0.00553371
-0.00087182
0.00547734
0.020137
0.0087844
0.0426541
0.00967487
0.0115329
0.0101266
0.0113701
0.00983642
0.0107652
0.000535179
0.00416036
0.00986601
0.00955143
0.00175522
-0.00282345
-0.000727651
0.00570186
-0.00204954
0.0154223
0.00721581
0.00414041
-0.00560227
0.0247728
0.00502984
0.010735
0.0169329
-0.0327567
0.0325182
-0.0109191
0.0214998
0.0204573
0.0158436
0.00364864
0.00625608
0.000506792
0.0236001
0.00627942
0.0151812
0.0161727
0.00829339
0.0142691
0.0136314
0.00162403
0.00876354
0.00853273
0.0150793
0.0254057
0.0186403
0.0210422
-0.0165012
0.00882638
0.000769829
0.0140579
0.0161759
-0.0468143
0.0107346
0.0157617
0.0128672
0.02067
0.0185162
0.0190119
0.0100154
0.00163852
3.65624e-05
0.010607
0.0124095
0.010607
0.00556565
0.0163315
0.0288211
0.025464
0.0131113
0.0322246
0.0111506
0.00594738
0.0292561
0.0157305
0.0409887
0.000563589
0.00607383
0.0114781
0.0189352
0.0135891
0.0205447
0.0126667
0.0206608
0.00474751
0.00830768
-0.00190637
0.00613601
0.0178564
0.0103204
-0.00214757
0.0181968
0.0131789
0.0235699
0.0162554
0.00993478
0.00789658
0.0161704
0.0177309
0.00464704
0.0011508
0.00476927
0.00742847
0.0258941
0.0232018
0.00388641
0.0182378
0.0225724
0.0218828
0.00726596
0.0150477
0.0126419
0.020976
0.020899
0.013586
0.021921
0.0170234
0.0186557
0.0119056
0.0075328
-0.00140865
-0.012128
0.0308364
-0.00804154
0.0150462
0.0197368
0.0215277
0.0159074
0.0137108
0.0141319
0.0220667
0.00594108
-0.00629945
0.00454071
0.00902924
0.0148769
0.0165113
0.0215984
0.0338558
0.0368105
-0.0115889
0.0221438
0.0193316
0.0128988
0.00474386
0.0221318
0.0241222
0.0138181
0.0193043
0.0224087
0.02042
0.0257217
0.0203327
0.0130176
0.011377
-0.00519201
-0.0116252
-0.0010063
0.0120591
0.0147673
0.006406
0.0139752
0.0178691
0.0125328
-0.000131869
0.018372
0.0143671
0.0241383
0.0221497
0.0178498
0.0199392
0.00865866
0.0274029
0.0147995
-0.0129608
-0.0713186
-0.0231329
0.06799
0.0435499
0.0199109
0.0222736
0.0113677
-0.0686418
0.0207324
0.0130127
-0.0301407
0.00560449
0.00591382
0.0823811
-0.0155406
0.0184649
0.00533817
0.0131406
0.0219803
0.0237734
-0.0020792
0.0208787
-0.0112853
0.00332297
0.000429599
0.002975
0.00156046
0.00815996
0.00710406
0.0153928
0.000591582
0.0169967
0.00261244
-7.911e-05
0.000500137
-0.00152921
0.0254547
0.025949
0.00249926
-0.000454345
-0.00285001
0.00624587
0.00406352
0.0160948
0.0263928
0.0087256
0.0143537
0.0113076
0.0102096
0.0103058
0.00514335
0.0140878
0.00789806
0.0147181
0.0144668
0.0110146
0.0093557
0.0164135
-0.00510702
0.0127855
0.0162971
0.0156979
0.0183518
0.0223088
0.0108312
0.0181188
0.0178972
0.0219756
0.0132648
0.00314103
0.00108954
0.0163686
0.0143997
0.0197637
0.0226328
0.0173436
-0.0776107
0.0165889
0.0260018
0.031542
-0.0273399
0.0245078
0.0145589
0.0138613
0.0195814
0.0154485
-0.0580325
-0.0214059
0.13798
-0.102309
0.0185133
0.0158267
0.0150352
0.00614207
0.014361
0.0136065
0.0127433
0.0217468
0.0176699
0.00854487
0.0103734
0.0140607
0.0121387
0.0139154
0.00776124
0.0186829
0.0128662
0.0201984
0.0170455
0.0170199
0.0133961
0.0188338
0.0069862
-0.0223364
0.00834656
0.00225906
-0.00839687
0.0014848
0.0374028
0.0326473
-0.00454187
-0.0306915
0.0296715
0.00266609
0.0150607
0.0314259
0.0279557
0.130983
0.049985
-0.040936
SCALARS CoVolArea double 1
LOOKUP_TABLE default
586.776
660.275
884.463
949.204
1636.56
530.657
4484.79
1538.63
306.99
572.562
607.362
492.646
582.577
709.386
3396.76
2205.44
1292.17
1194.61
1262.67
1213.34
219.447
1178.98
713.465
2242.55
1345.28
601.017
627.489
1480.89
1183.29
2409.08
455.604
1369.97
1450.94
1522.45
1298.83
1139.51
3474.32
746.321
816.457
2446.92
798.973
1973.85
437.405
3342.11
849.08
604.212
1035.66
1331.23
578.451
797.809
741.979
1049.14
730.238
619.497
2193.16
568.625
1168.17
1099.19
525.783
864.748
645.661
623.366
1373.68
1830.08
1491.42
1259.7
493.759
1445.01
1945.26
1174
965.361
973.27
158.908
4457.87
149.845
4610.65
1651.23
2838.83
300.61
787.736
734.217
898.437
881.594
774.796
1063.73
864.63
1077.4
1171.23
2117.82
1651.25
1262.35
2213.55
1364.64
2060.88
912.147
2504.02
1288.56
633.615
698.011
663.522
1359.86
989.474
1008.42
833.829
985.195
1862.64
1560.06
598.923
1216.4
838.905
1328.04
850.873
2406.08
848.876
1390.38
1293.64
775.593
1134.02
1364.99
1330.54
1499.79
2162.54
1569.38
1347.9
1885.78
1340.4
1839.89
1277.54
1233.43
767.938
702.457
1073.43
1440.78
1528.72
1164.43
760.656
554.672
1037.29
1189.54
1926.24
1470.46
865.809
1646.02
3571.9
980.143
2649.91
1141.01
1520.38
1257.21
1046.21
835.642
1150.35
662.936
1222.72
802.855
1053.68
784.132
956.21
1026.01
2077.08
958.968
375.525
503.842
411.881
600.423
2211.68
1288.05
588.182
2953.39
2043.88
4215.79
606.345
593.255
511.071
674.031
584.277
594.043
1493.66
886.995
1474.89
611.867
683.76
685.432
2179.91
643.224
1319.32
663.643
628.545
692.798
2275.62
971.984
2279.94
935.799
919.598
2300.96
1268.88
661.027
754.924
1164.12
674.364
550.968
1971.33
1227.15
1073.42
1197.33
2055.89
775.876
773.319
662.489
1360.43
695.583
827.908
2468.28
1148.86
1914.38
1849.07
2043.72
1503.17
817.632
832.3
779.658
477.046
950.811
536.177
764.436
869.678
627.372
842.727
445.887
774.538
500.983
862.899
1473.95
1590.27
1528.64
1294.65
1606.66
1279.97
1331.91
1727.5
1444.65
889.027
1386.48
1285.7
701.933
590.198
1581.68
1064.53
344.549
750.953
725.641
1756.27
1444.02
1819.38
1582.22
1204.18
1530.08
1806.37
1280.47
1198.26
718.946
443.952
731.003
322.086
1074.99
1233.53
1599.9
1803.03
1759.49
1106.83
550.644
123.378
367.371
395.101
211.453
2766.5
2228.77
445.832
1243.8
1735.66
555.14
87.4681
1548.9
807.953
1120.33
2672.79
2128.81
4305.97
4541.3
243.754
2217.56
705.13
523.761
474.069
3096.49
1970.72
976.439
1208.89
2350.15
785.26
755.024
663.887
620.943
646.975
619.827
1601.63
552.786
723.926
769.209
1837.69
906.219
1953.09
671.2
666.005
669.435
2135.2
911.796
2092.43
835.178
722.015
899.342
859.734
840.311
934.151
920.065
935.732
924.22
1513.29
1152.64
1110.31
783.444
828.84
3002.97
2163.38
1653.35
918.749
1490.11
645.096
1235.83
1703.75
1693.95
1245.59
1702.22
1371.34
1632.14
932.768
1404.93
1606.76
1330.81
2178.19
3231.26
1453.95
4054.73
626.219
1848.52
1146.58
3003.86
1328.08
2124.94
1261.04
772.961
2607.88
839.691
832.535
571.093
642.746
508.691
1492.35
931.303
3002.03
550.613
563.03
810.767
662.043
1258.01
584.886
729.142
1981.23
1601.55
1113.18
1090.45
880.117
1099.68
919.502
3283.2
1429.88
3096.54
814.715
861.147
949.803
1117.67
896.638
1144.99
934.085
1061.23
852.408
1541.86
1827.58
1677.4
1507.51
1312.16
1550.12
1822.06
715.113
836.553
759.882
855.096
488.676
960.712
1461.64
469.713
1074.68
466.987
1830.7
1394.01
1139.14
572.809
1161.87
729.751
1840.11
1244.76
1926.34
2117.3
2361.22
1542.48
720.952
1390
1231.05
975.323
937.73
1164.48
1046.71
1054.54
902.455
1094.97
935.187
1218.57
1068.65
726.501
631.692
1334.48
1021.22
1877.32
1414.97
1152.76
1292.44
1505.94
1086.59
1280.75
968.865
1304.18
1434.29
1823.54
1229.65
1056.43
1469.29
2517.85
2587.64
4917.38
1330.36
1794.83
1391.11
1786.05
1201.7
1830.6
1508.3
1234.44
1672.75
1434.24
4396.34
1981.63
2054.3
977.105
1270.63
964.001
1348.13
1302.89
3239.6
834.802
798.302
1641.21
1024.01
742.946
794.168
979.407
721.154
772.156
841.852
699.064
696.111
858.603
1548.27
3275.36
1959.83
3105.89
1182.78
1382.96
820.326
698.361
1271.66
1026.73
1713.04
1553.17
1659.74
725.19
812.627
822.853
765.784
595.383
612.886
693.538
3236.13
1449.64
3602.55
821.671
1016.9
735.272
732.353
894.846
964.596
574.431
1024.7
1352.85
1517.43
1643.44
1476.45
4297.85
872.214
2606.6
886.357
1057.61
682.802
743.591
1238.33
2983.26
1452.73
2844.68
1488.85
2901.6
3501.73
1837.47
688.551
1446.74
610.964
3152.56
2134.87
1551.6
1911.23
1315.93
879.082
1422.52
3149.07
2581.82
1982.17
2019.83
1474.57
704.152
1082.66
970.303
945.495
1245.2
1627.13
911.841
847.677
941.537
877.5
943.905
1693.87
1282.34
1178.64
2270.24
1069.61
1009.29
1371.87
704.821
1045.31
1125.32
1048.51
1156.73
1221.66
926.312
625.299
765.706
853.813
1015.36
1116.49
989.742
736.885
1230.36
764.584
650.533
719.699
3619.4
662.785
734.395
661.87
704.924
815.659
868.875
3846.78
833.234
928.963
780.055
936.958
879.463
2614.49
607.644
822.949
689.973
674.831
917.877
1410.19
1144.54
961.871
932.319
896.38
1641.9
1107.95
1216.34
1005.17
972.475
1013.26
1148.25
1084.14
775.908
1861.43
1736.12
2267.02
3175.56
1404.38
299.003
656.271
3019.78
3132.91
389.338
1400.01
300.541
314.898
326.182
791.289
263.872
1339.55
SCALARS SignedDistance double 1
LOOKUP_TABLE default
50.7608
52.0293
40.4331
36.5366
41.1063
49.5442
54.9665
36.4262
55.6478
48.7215
56.0777
54.3021
115.693
47.4103
60.2355
61.0973
50.4601
29.0766
34.5241
39.1404
62.2437
62.0984
45.7661
70.4984
38.3834
37.569
50.0496
53.6313
39.4915
49.8063
50.3639
36.0628
50.1401
36.7851
31.1734
33.0072
47.7685
39.6997
40.8683
49.7592
45.9612
54.2445
67.9687
79.876
60.7812
50.1062
56.4674
58.5896
52.7548
54.6891
47.9104
55.0366
51.3087
52.5899
61.7094
49.7554
54.2248
57.38
42.9794
48.505
43.75
43.0487
33.1038
37.4225
31.6312
35.4887
48.4862
35.8974
39.797
55.3798
54.7075
50.2897
75.7496
74.471
73.531
97.5644
55.5965
61.718
58.0927
47.0902
51.6297
54.0522
52.5618
48.689
40.9184
42.1203
47.3863
41.9053
37.8793
39.6439
34.6917
52.4615
52.3848
58.5119
53.9425
65.0959
52.3137
44.973
42.7053
56.6103
34.4791
37.2618
79.6033
43.0738
45.6815
35.0805
35.8733
47.0399
35.0718
45.0606
51.9555
61.1743
63.0271
45.5567
51.5452
43.1044
47.3615
48.9573
26.6076
30.1448
35.1852
44.8859
36.8699
25.3529
42.7764
36.1489
45.4208
55.5998
35.5426
31.8019
34.5875
35.4231
53.3939
54.4237
53.6659
41.1893
46.8118
75.189
52.8177
56.6739
49.3947
52.4785
48.3889
64.8952
54.7605
51.6358
52.1243
36.7221
40.7005
40.8418
45.7867
32.1875
50.6875
52.4058
42.7623
55.9478
39.8653
42.2607
36.4004
78.1661
59.5998
54.8018
55.2889
61.1392
56.1393
109.513
72.1173
82.4268
62.4399
69.1368
63.2296
52.599
55.0474
55.7349
51.7907
53.4957
48.0807
88.5736
58.4484
72.694
50.6295
51.7336
48.4776
56.1837
53.52
55.2634
47.6681
51.7896
51.5725
61.6702
55.6629
60.3191
56.514
53.7389
57.9814
57.8513
49.7331
54.2293
53.1802
51.0787
53.3822
61.7259
58.4429
57.0079
57.8195
61.4713
53.2584
55.0217
55.3719
51.8148
53.5641
49.3473
58.4352
55.3365
57.4328
58.4026
58.8091
51.8902
48.7133
45.5233
44.0724
43.4249
42.7173
42.1451
37.3434
48.5796
44.1614
35.162
40.7886
36.673
43.4929
49.1766
34.7614
31.5595
34.2039
30.338
34.5115
35.6636
34.8299
34.9837
31.4105
50.9098
43.6217
36.1595
42.9322
46.7705
37.8856
37.7448
59.8238
41.4841
47.9144
36.8623
34.9387
40.2166
35.5865
35.9152
34.3793
37.9172
57.1115
60.012
53.6924
54.3891
52.6892
63.4667
43.3506
59.8548
52.8793
33.8809
48.5788
45.6277
54.8325
65.736
64.6889
73.9676
87.2903
60.066
65.119
97.6227
90.5815
83.4409
71.1497
66.6555
56.9074
54.8091
109.244
63.9173
57.8747
56.6189
84.9073
69.6238
66.2136
78.8735
57.1511
53.1377
58.6601
62.9712
60.2262
62.1932
67.1832
47.8679
50.0165
49.9555
50.468
45.913
51.2213
53.0285
51.6442
50.4001
47.9788
57.2391
52.5975
56.4137
46.6338
51.0641
49.9513
55.1757
52.7151
56.7674
45.4312
45.5904
44.0477
43.364
40.12
42.3541
39.0506
50.7645
48.6189
42.3474
44.9126
44.9541
46.4184
44.6902
38.7529
38.6031
36.1729
37.808
37.5912
36.9261
35.2588
38.0917
38.8045
41.1286
39.3501
40.1352
54.4014
53.51
55.3364
55.769
51.3876
53.5424
52.964
66.0219
65.625
51.7666
54.2316
50.853
57.7454
57.7525
47.9284
46.9765
44.1251
66.7296
53.1947
58.5973
47.4193
49.1481
51.6503
53.5179
52.5907
50.9563
52.9598
56.4826
40.6147
44.6368
50.9964
47.5098
44.9835
35.6498
34.658
39.1022
36.58
37.623
34.0601
35.5113
76.2859
51.0142
51.2061
46.1769
49.5913
60.5585
40.689
43.4743
38.4121
36.7533
37.6181
40.7464
34.4778
36.9272
36.9182
32.7151
34.3138
33.7092
37.0124
45.564
40.3934
46.304
38.3216
50.7813
43.6901
38.7803
50.9328
52.0099
54.5818
44.5872
51.2679
38.3026
54.0291
56.8649
48.3949
32.7703
41.2007
44.1794
44.1168
65.4222
64.5512
47.3847
48.426
54.7456
38.3411
44.7484
37.5008
46.4128
47.5306
50.083
38.7621
45.0744
41.2103
48.181
47.9257
47.6117
37.6298
35.1057
36.0521
26.7286
25.6407
27.0104
34.6489
32.991
33.1523
45.2973
36.3041
35.1903
67.3869
35.4126
40.0963
46.1396
38.0755
68.7811
54.3866
32.8945
36.5078
29.3862
30.2809
26.2393
36.2249
31.1423
37.2939
68.7813
67.7125
66.4473
71.1696
37.7599
37.0112
48.7877
39.5931
49.2189
43.3844
47.8174
35.9345
33.1059
44.0781
37.6132
34.6189
33.94
36.8572
36.7967
34.4289
36.2081
33.4586
35.621
37.8766
37.7935
63.2082
64.132
63.0009
42.9695
54.6789
45.3847
45.429
49.7853
42.0817
46.3217
38.5958
47.0338
35.9174
39.1687
38.0638
34.8927
47.1452
41.9085
45.1153
72.8304
70.0567
70.3898
79.585
60.5167
55.2194
44.6787
64.4177
72.6094
54.5947
46.9626
56.4844
49.003
47.9427
84.8484
63.3412
44.6979
48.1425
46.1752
45.4853
44.0933
47.2509
48.2319
59.6773
56.4878
71.1098
54.1842
52.5564
55.4274
52.3279
55.3102
50.5963
51.0377
48.728
49.7108
53.7081
52.2498
55.1674
58.4373
55.08
52.3981
37.3204
35.6906
38.092
35.2033
37.6006
45.0501
41.8074
43.6918
41.6023
37.868
44.9929
38.5086
42.2933
42.7475
41.5863
38.305
39.8519
37.7437
66.4688
38.7994
46.5668
52.0288
51.0735
33.3376
37.1622
33.58
27.9124
29.8362
52.4334
50.8608
51.1678
50.2882
44.8466
41.5859
45.6374
50.1364
70.4276
44.1277
55.6627
80.0149
74.7862
40.8908
47.4531
44.0132
38.8531
39.5476
76.0788
66.3553
82.875
65.2872
50.8978
43.7023
48.544
49.7505
46.6401
42.9856
43.7943
41.333
36.6236
50.3975
38.8382
43.6795
48.7051
45.4335
34.8835
33.7835
35.0331
34.7757
39.1505
39.7032
37.7695
35.0896
52.6767
58.6409
53.058
54.3634
68.0329
59.6131
56.3996
57.1695
62.0286
74.703
53.2097
58.3613
56.512
54.335
54.1905
79.4378
60.7832
70.3341
