# vtk DataFile Version 4.2
vtk output
ASCII
DATASET POLYDATA
POINTS 642 double
-209.194 373.7 43.9112
209.635 378.509 42.8651
-212.822 -321.428 51.1388
218.059 -326.877 51.5667
0.744061 -204.814 424.071
0.697961 224.82 388.817
0.960481 -168.55 -268.442
0.556432 254.835 -303.785
330.148 36.3979 -159.885
325.521 24.8307 264.28
-320.915 36.1114 -156.338
-316.398 25.258 260.083
-297.808 220.337 153.904
-189.83 143.189 372.991
-106.428 315.54 224.756
108.653 318.651 227.586
0.757206 441.741 41.1651
131.241 381.358 -160.992
-127.738 377.916 -158.942
-202.24 158.251 -282.936
-323.893 235.292 -72.6463
-353.475 31.8001 50.3239
193.694 145.083 376.961
289.902 216.586 154.829
-204.637 -107.981 392.261
1.22387 25.6303 477.613
-309.364 -171.805 -65.2296
-313.282 -176.854 191.391
0.996482 36.1049 -363.277
-191.232 -79.7494 -269.88
327.552 238.858 -75.834
205.465 159.84 -285.666
323.696 -181.493 193.038
209.647 -109.299 395.997
136.146 -328.627 279.381
-134.378 -326.559 277.714
0.356052 -380.041 51.3033
-126.033 -304.097 -146.724
129.159 -306.57 -148.448
194.806 -81.4165 -272.435
317.47 -178.555 -67.8671
362.704 25.9936 54.181
-267.151 305.372 102.808
-215.374 277.751 192.912
-165.502 363.231 135.62
-264.818 86.4296 326.825
-251.211 179.799 279.079
-310.669 119.218 221.591
-57.3096 278.255 322.135
-154.364 240.025 318.081
-98.0802 190.805 394.333
-63.4069 400.328 134.815
-108.11 426.775 41.7091
59.4377 279.068 322.734
0.961572 330.522 238.471
111.852 429.946 41.9306
65.9896 401.464 134.485
166.011 366.731 134.897
-69.6209 440.36 -61.4147
-176.253 394.463 -58.6204
181.257 401.41 -60.2889
71.502 442.183 -61.87
-66.8474 327.806 -243.389
0.677013 396.334 -171.134
68.5521 328.9 -244.368
-240.526 318.12 -122.829
-280.367 318.922 -16.0937
-107.216 212.747 -307.654
-172.728 277.894 -232.681
-336.276 144.974 -118.125
-278.143 207.508 -184.834
-275.173 97.0896 -229.191
-330.62 240.945 43.8805
-342.447 45.3444 -54.4053
-366.16 145.281 -15.9111
-337.847 145.335 99.9828
-341.03 24.7146 163.514
210.619 276.675 194.039
268.547 307.478 102.394
100.783 191.871 396.666
157.677 242.209 320.914
318.287 119.932 224.053
256.061 181.673 283.19
270.766 87.2872 330.854
-101.607 90.014 442.145
1.05912 132.592 446.533
-273.967 -43.4784 334.757
-206.094 25.1789 398.049
0.258352 -87.2819 462.448
-105.032 -41.1821 450.929
-111.552 -165.033 427.687
-340.844 -75.6904 119.28
-324.793 -83.5167 232.858
-313.756 -73.2908 -112.811
-345.365 -79.0923 -8.47141
-268.859 -251.264 126.007
-322.477 -182.136 49.7424
-274.675 -257.716 -11.3303
-210.902 35.0954 -295.967
-268.863 -24.0651 -223.181
0.797472 145.061 -351.66
-108.236 100.881 -345.35
-101.704 -131.79 -284.491
-105.956 -29.3421 -335.841
0.556508 -70.9116 -335.412
175.841 280.82 -235.591
108.888 213.917 -309.373
281.403 321.023 -18.0248
243.629 322.613 -124.974
281.854 97.1258 -232.894
281.009 209.965 -188.434
338.406 141.81 -120.96
276.916 -256.454 127.304
250.093 -269.663 240.517
184.842 -339.379 175.752
279.679 -44.2916 338.454
287.724 -155.547 305.882
335.922 -85.6353 235.878
73.1823 -281.664 369.292
184.929 -232.531 359.836
113.51 -167.195 429.418
71.573 -378.706 179.141
116.67 -371.908 50.5439
-71.6879 -280.364 367.873
0.563141 -342.349 288.757
-113.712 -369.462 50.7912
-70.3311 -377.371 178.998
-180.416 -335.076 175.08
71.9653 -366.583 -54.2285
181.943 -333.744 -54.1258
-177.775 -329.393 -52.7245
-70.2045 -366.226 -54.1428
68.1262 -251.015 -219.516
0.477403 -316.365 -155.345
-66.1393 -250.658 -219.38
239.584 -257.103 -116.928
283.063 -263.19 -12.7202
103.547 -133.469 -285.857
168.789 -211.575 -214.216
320.562 -72.2422 -113.528
267.745 -143.516 -171.572
275.217 -25.0846 -226.838
331.293 -188.215 49.8299
351.724 40.6589 -59.5849
358.117 -81.3366 -9.35086
350.216 -77.3939 120.724
353.649 25.4025 167.074
107.094 -40.3625 455.087
210.626 25.738 403.059
104.199 90.4036 445.762
-244.984 -265.54 240.57
-181.961 -229.729 356.52
-280.874 -154.429 302.046
-164.843 -208.798 -211.22
-233.211 -252.653 -113.721
-262.797 -139.51 -168.604
214.957 35.0324 -299.249
107.278 -29.5122 -337.406
109.342 101.032 -347.471
339.197 130.29 104.023
362.771 146.657 -18.7606
331.624 243.44 43.3878
-241.769 341.853 74.4704
-219.558 338.36 120.82
-188.677 372.12 92.2255
-260.053 253.027 176.047
-244.23 299.063 146.764
-285.935 264.922 128.26
-138.575 348.585 171.33
-194.52 328.252 160.332
-162.006 296.861 207.44
-293.76 56.3955 295.746
-292.336 103.81 275.877
-316.587 73.5573 242.556
-224.305 163.183 328.631
-260.33 135.281 305.543
-229.92 115.583 352.778
-300.343 171.373 185.356
-283.919 151.386 252.005
-272.261 198.216 219.459
-28.9571 254.437 357.504
-78.2952 238.479 361.508
-48.4752 209.623 394.833
-131.61 276.795 283.033
-107.312 261.713 322.64
-83.1645 295.299 284.5
-145.507 168.526 386.973
-128.756 218.114 358.318
-173.744 194.983 348.89
-233.306 229.885 242.828
-205.998 212.653 301.671
-185.123 255.866 265.789
-138.145 398.072 90.9774
-158.507 402.968 42.4179
-87.642 365.992 174.02
-113.7 385.166 135.697
-56.6984 439.62 41.5704
-85.5961 418.173 90.7537
-33.9716 426.417 89.9835
30.5488 254.726 357.934
0.690744 282.591 326.604
56.211 328.049 236.436
29.936 304.951 289.769
85.9022 297.413 284.917
-27.9829 304.249 289.74
-53.0125 326.692 235.008
161.796 408.839 42.0928
140.992 402.874 91.0722
189.248 376.4 91.7151
35.7553 426.819 89.9588
88.7234 420.41 91.1144
58.7414 440.787 41.5969
138.712 350.035 172.577
116.129 388.638 135.668
90.0888 367.242 175.111
-30.6802 373.148 181.994
31.9825 372.598 181.986
0.513702 402.956 135.44
-143.937 418.002 -8.98207
-194.664 387.55 -7.33728
-35.2492 448.74 -9.57148
-90.3271 439.502 -9.74763
-153.817 390.543 -109.536
-124.432 423.225 -61.9045
-100.47 414.489 -111.871
197.245 393.967 -9.02497
148.546 423.125 -9.41329
103.089 417.115 -113.027
128.302 426.917 -62.6718
158.221 395.326 -111.374
93.1421 442.093 -9.92093
36.8942 449.796 -9.71881
-33.4425 293.871 -277.301
0.5459 331.921 -248.258
34.6649 294.299 -277.815
-66.5186 393.175 -169.171
-34.5051 366.22 -210.274
-98.523 356.618 -203.608
101.156 358.842 -205.088
35.8508 366.587 -210.458
68.407 394.682 -169.918
0.758866 444.363 -62.6036
36.9651 425.662 -118.887
-35.3913 424.577 -118.425
-232.24 358.746 -37.4588
-247.758 349.67 13.5443
-185.714 351.017 -142.163
-210.368 358.78 -91.9725
-305.329 280.133 -44.9114
-263.51 321.161 -69.8484
-286.384 280.031 -99.4102
-54.293 235.718 -308.768
-87.5771 273.652 -279.455
-188.787 219.368 -260.614
-141.177 247.648 -273.472
-156.915 186.71 -299.251
-121.36 306.241 -241.336
-151.524 330.883 -198.83
-328.443 89.9027 -137.692
-307.125 121.415 -172.932
-301.613 65.9519 -194.206
-305.571 223.15 -131.719
-313.41 177.055 -153.753
-337.458 189.597 -98.8973
-241.821 128.231 -259.289
-276.575 153.657 -207.269
-240.516 183.536 -235.544
-210.054 302.018 -180.375
-229.109 244.819 -211.985
-263.266 265.596 -157.356
-277.828 316.346 44.2171
-334.038 242.417 -13.4952
-309.786 281.999 14.004
-302.103 276.212 74.1313
-318.346 233.626 100.259
-335.341 41.8149 -110.083
-344.61 96.9011 -86.2695
-361.289 102.599 9.62864
-360.263 103.767 -33.4353
-349.171 42.7561 0.710308
-355.752 146.796 -65.1727
-354.879 189.294 -44.9392
-330.868 73.1655 196.449
-333.32 25.285 214.186
-328.483 183.572 128.185
-322.706 129.958 159.422
-350.016 24.225 105.588
-337.063 79.2159 136.84
-345.691 90.9396 71.8123
-357.657 193.183 13.2406
-360.532 148.94 37.9658
-347.374 191.783 72.9336
220.289 341.076 120.32
242.829 344.666 74.4136
160.667 300.533 212.122
193.644 331.145 159.951
286.079 268.699 124.115
244.505 302.469 143.488
255.341 249.418 175.044
50.4743 209.945 395.747
80.8118 239.409 362.939
177.503 197.253 352.329
131.901 219.879 360.959
148.707 170.167 390.347
110.201 263.358 324.346
134.018 279.351 284.898
325.164 73.6172 245.616
299.28 104.981 279.43
301.236 56.0367 299.68
275.794 194.804 226.877
289.921 152.501 255.493
305.431 165.488 197.467
234.699 117.299 356.91
266.011 137.31 309.414
228.99 165.566 332.506
186.697 257.427 270.691
209.982 214.935 305.403
235.626 228.606 250.1
-49.3905 164.396 424.816
0.839201 181.415 420.523
-148.537 118.894 411.11
-101.384 142.41 421.604
1.21062 79.7482 466.028
-50.5382 111.759 449.228
-50.7775 58.4264 465.148
-295.867 -9.82416 298.753
-271.855 24.5099 333.364
-207.555 -41.1408 398.206
-241.489 -9.67084 368.002
-243.181 -76.3609 366.543
-238.412 57.4776 365.281
-201.041 86.3344 389.58
-0.290991 -148.723 442.711
-56.2371 -129.79 446.558
-58.6474 -188.039 432.556
-51.5526 -6.65773 472.297
-53.2604 -64.3612 461.973
1.18145 -28.0785 476.801
-160.877 -138.331 414.128
-110.02 -104.767 439.691
-157.825 -77.4899 425.542
-156.357 58.4669 425.321
-159.356 -8.28559 429.394
-104.39 26.1898 454.27
-335.433 -26.0756 199.632
-322.046 -29.8269 246.557
-352.549 -22.6321 84.6651
-345.306 -23.2342 141.574
-322.013 -132.921 213.84
-331.798 -81.0498 181.217
-327.246 -127.274 159.116
-318.216 -12.5638 -141.186
-326.786 -15.229 -84.9454
-332.904 -127.157 -37.1639
-333.603 -81.2708 -56.8768
-315.72 -126.414 -87.4516
-345.27 -24.3608 -26.5109
-352.089 -25.2325 22.4482
-243.778 -291.18 87.3762
-276.75 -260.139 50.6813
-246.908 -292.857 19.1696
-310.711 -179.068 121.468
-300.19 -220.204 85.7371
-297.191 -218.849 162.472
-295.072 -217.081 -39.5446
-302.614 -221.721 19.9242
-320.589 -179.719 -7.69954
-347.407 -77.9261 50.5546
-340.391 -132.609 19.066
-334.419 -129.844 83.7184
-276.705 35.2981 -230.593
-298.025 5.413 -191.903
-210.146 96.9906 -294.548
-245.682 66.8133 -266.248
-233.145 -51.4144 -249.659
-242.804 4.26745 -262.787
-204.872 -24.5493 -286.863
0.619578 200.018 -330.071
-54.8688 180.896 -334.774
-54.4669 68.7543 -360.499
-55.0353 123.253 -352.837
1.0395 90.1909 -363.669
-109.693 156.898 -331.393
-158.13 131.507 -319.457
-53.794 -151.138 -280.61
-52.0577 -101.199 -316.563
0.76039 -116.184 -310.646
-151.969 -57.1985 -306.957
-104.609 -80.3705 -315.337
-147.179 -107.465 -281.321
0.711362 -18.8569 -353.088
-53.7356 -50.9189 -339.808
-54.0906 2.2796 -354.004
-163.112 67.9528 -326.07
-108.914 35.0712 -347.038
-161.061 2.42617 -321.895
[...]
POINT_DATA 642
SCALARS Mean_Curvature double 1
LOOKUP_TABLE default
0.00609089
0.00535159
0.00644256
0.00649935
0.00230746
0.00722779
-0.00488016
0.00531718
0.00692164
0.00664398
0.0079255
0.00638142
0.00409266
0.00546619
-0.00152157
3.28547e-05
0.00338609
0.00624899
0.00606107
0.00559927
0.00377828
0.00416023
0.0055333
-0.000240558
0.00388429
0.00765058
0.00563728
0.00677866
0.00526315
0.00555324
0.00683917
0.00534858
0.00782799
0.00476895
0.00568075
0.00597698
0.00201886
0.00594743
0.00600429
0.00550921
0.00670448
0.00419512
0.00610049
-0.000205986
0.00613451
0.00560778
0.00488093
0.00500209
0.0053836
0.00541977
0.00537876
0.00591564
0.00649614
0.00498659
-0.000393019
0.00653793
0.00542866
0.00583807
0.0079413
0.00570187
0.00793529
0.00763431
0.00513269
0.00348259
0.00502378
0.00538666
0.00739443
0.00444299
0.00414515
0.00593484
0.00573261
0.00549792
0.00494909
-0.00105538
0.011179
-0.000778125
0.00235733
-0.00316011
0.00672187
0.00547512
0.00567809
0.00510848
0.00555743
0.00529786
0.00512287
0.00568795
0.00581319
0.00512973
0.00404688
0.00335016
0.00690193
0.00111765
0.00634807
0.00185528
0.00499176
-0.0036991
0.00583606
0.00627836
0.00642362
0.00556883
0.00485635
0.00593565
0.00333928
0.00614694
0.00508412
0.00429951
0.0043599
0.00573089
0.004892
0.00515919
0.00572458
0.00326414
-0.00342299
0.00472511
0.00650528
0.00306981
0.00655573
0.00640272
0.00621274
0.00598284
0.00742744
0.00918478
0.00565949
0.00609537
0.000932486
0.00555181
0.00921568
0.00667493
0.00514833
0.00611798
0.00607836
0.00634861
0.00468852
0.00220629
0.00592739
0.00576459
0.00615036
0.00314652
0.00578668
-0.000196019
0.00531532
0.00562208
0.00585579
0.000528041
0.00939087
8.4217e-05
0.00566156
0.00420604
0.00545666
0.00534387
0.00699693
0.00568874
0.00752938
0.00553884
0.00580049
0.0058004
0.006317
0.0058306
0.00565156
-0.00185751
0.00793679
0.0069661
0.00592815
0.0063006
0.00530713
0.00289308
0.00635918
0.00583976
0.00409938
0.00660783
-0.00475173
0.00569926
0.00546145
0.00564552
0.00546256
0.00551457
0.0055294
-0.000386149
0.00476584
0.00301069
0.00541615
0.00537259
0.00514691
0.00456458
0.00571271
0.00510392
0.00545588
0.00558135
0.00542725
0.00353754
0.0052646
0.00459426
0.00487446
0.00426016
0.00325488
0.00520661
0.00679466
0.00674181
0.005778
0.00524875
0.00613132
0.000288935
0.0053171
0.00510225
0.00547269
-0.000227335
0.00580671
0.00617819
0.00515421
0.00538173
0.00690218
0.00626259
0.00284034
0.00613751
0.00350205
0.00469876
0.00340393
0.0024943
0.00644816
0.00453243
0.0068145
0.00746983
0.00533345
0.00793057
0.00593701
0.0053877
0.00734083
0.00560196
0.00755492
0.00563487
0.00718153
0.00690023
0.00525596
0.00467946
0.00516756
0.00639023
0.00496367
0.00577569
0.00573453
0.00445861
0.00617325
0.00482101
0.00533981
0.00519251
0.00558273
0.00626728
0.00427006
0.00425744
0.00569094
0.0050091
0.00534814
0.00389705
0.00520053
0.00368686
0.00449245
0.00523639
0.0050858
0.00424174
0.00421593
0.00206479
0.00524288
0.00476503
0.00838344
0.00838218
0.00567175
0.00241947
0.00330831
0.00476125
0.0046197
0.00540897
0.00592005
0.00642692
0.00645799
0.0059672
0.00511643
0.0059486
0.00175659
0.00648563
0.00717294
-0.00281202
0.00744186
0.00920961
0.00587942
0.00677929
0.00941094
-0.000358328
0.00375217
3.37253e-05
-0.0033806
0.00918493
0.00815022
0.0101346
0.00633743
0.00571127
-0.00236833
0.00612894
0.00767367
0.00702859
-0.000828421
0.00481294
0.00530599
0.0056482
0.00573597
0.00555618
0.00570876
0.00473483
0.0052955
0.00544324
0.00523612
0.00366442
0.00524247
0.00405134
0.00550568
0.00570596
0.00564444
0.0049365
0.00576438
0.00457351
0.00530957
0.00590589
0.0053243
0.00518045
0.00600467
0.00533144
0.00570846
0.00212725
0.00519272
0.00457603
0.00275322
0.00558809
0.00558773
0.00552374
0.00133888
0.00331763
0.00856306
0.00761417
0.00356933
0.00722788
0.00608049
0.00312745
0.00441413
0.00519291
0.00439038
0.00572898
0.00395822
0.00343481
0.00471525
0.00339655
0.00661503
0.000601544
0.00265919
0.00629677
-0.00420206
0.00679266
0.00379363
0.00560475
0.00368789
0.00396057
0.00386997
0.00578159
0.00596853
-0.00271327
0.00591495
0.00896663
0.00583391
0.00579593
0.00540127
0.00312673
0.00761647
0.00293399
0.00634223
0.00559853
0.00626512
0.00561142
0.00585063
0.00602122
0.00609526
0.00312637
0.00487381
0.00624734
0.00508169
0.00608724
0.00571856
0.00609253
0.000912349
0.00584526
0.00462834
0.00602726
0.00560654
0.00518266
0.00456855
0.00560377
0.00495306
0.00582021
0.00583767
0.00623584
0.00508755
0.00384473
0.00500609
0.00490427
0.00496328
0.00477282
0.00411574
0.00526443
0.00513677
0.00557084
0.00607359
0.00492823
0.0049006
0.00517168
0.00712306
0.00351343
0.00630115
0.00341505
0.00314444
0.0053291
0.00647812
0.00455482
0.00638326
0.00450178
0.00540061
0.00472154
0.00390756
0.00448928
0.00141128
0.00787984
0.00804989
0.00802085
0.00630909
0.0088303
0.00501196
0.00375727
0.00616994
0.00260458
0.0063799
0.00511795
0.0062702
0.00756515
0.00673881
0.00734681
0.00679863
0.00614865
0.00910707
0.00596262
0.00608969
0.00615181
0.00557253
0.00671601
0.00588862
0.00515373
0.00548061
0.00573779
0.000618339
0.0057575
0.00597849
0.00659192
0.00443256
-0.000661077
-0.00100924
0.00717609
0.000958429
0.00542802
0.00709168
0.00591306
0.00685185
0.00543352
0.00565284
0.000621752
0.000324248
-0.00125985
0.00010712
0.00545281
0.00597449
0.00655711
0.00666758
0.00715232
0.00707565
0.00430865
0.00629344
0.00623578
0.00495043
0.00700737
0.00605463
0.00631849
0.00632997
0.00626393
0.00634008
0.00608227
0.00619135
0.00607271
0.00668484
0.00494101
0.0045548
0.0013171
0.00487852
0.00519057
0.00558697
0.00638795
0.00583899
0.00541838
0.00636748
0.00295352
0.0051744
0.00542075
0.00605428
0.00590708
0.00577474
0.00603146
0.0067364
0.00599764
0.00603663
0.00142334
0.0046315
-0.00244143
0.0044996
0.00510818
0.00557054
0.00597012
0.00630971
0.00468445
0.00563851
0.00656329
0.00211839
0.00394963
0.00576385
0.00341262
-0.00296524
0.00587554
0.00620153
0.00616534
0.00576439
0.00526621
0.00703967
0.00631757
-0.00352129
0.00914365
-0.0025956
0.0036177
0.000924236
0.000953119
0.00417965
0.00545448
0.00541912
0.00593257
0.00275352
0.00237498
0.00254511
0.000839525
0.00729184
0.00604339
0.00217967
0.0032121
0.00023791
0.0030099
0.00255318
0.00489946
0.00816652
0.00520711
0.00519672
0.00492721
0.00465476
0.00289023
0.00521759
0.0060739
0.00554373
0.00519405
0.00530675
0.00533292
0.00525826
0.00607955
0.00717538
0.00678071
0.00497468
0.00600817
0.0057402
0.00578492
0.00695605
0.00595097
0.00602088
0.00575353
0.00631722
0.00945744
0.00552754
0.00335762
0.00615436
0.00557753
0.00575705
0.00577542
0.00467694
0.00598814
0.00541189
0.00369613
-0.00154725
0.0060517
0.00548285
0.00612591
0.00601699
0.00579667
0.00454862
-0.0029352
0.00331036
0.0031777
0.00596169
0.00580669
0.00540224
0.00547298
0.00625269
0.00594079
0.00582707
0.00656578
0.00571987
0.00571043
0.0052277
0.00551749
0.0053886
0.00590879
0.00492608
0.00585391
0.00542838
0.00562652
0.00737602
0.00599668
0.00554454
0.00599934
0.0067153
0.00242907
0.00188739
0.00421269
-0.00279849
0.00447347
0.00594945
0.00813876
0.00515462
-0.00387297
0.00611681
0.00728905
0.00676127
0.00657455
0.00658917
0.00866863
0.00811932
0.00708543
SCALARS CoVolArea double 1
LOOKUP_TABLE default
2476.49
2509.77
2656.26
2716.02
2943.48
2265.05
3045.42
2795.72
2216.45
2403.3
2231.55
2311.66
3027.93
2976.14
3780.68
3622.62
3282.67
3525.98
3484.13
3361.57
3214.59
3409.57
3049.73
3388.19
3451.58
3183.14
2913.81
3031.37
3341.14
3357.22
3147.5
3453.38
3131.37
3567.33
3766.65
3676.85
3922.61
3180.52
3236.91
3453.77
3022.25
3366.14
2678.34
3599.72
2643.19
2776.87
3060.08
2922.71
2557.8
2899.88
2850.89
3024.93
2944.98
2609.5
3696.09
2959.6
3078.37
2655.35
3546.94
3203.7
3176.54
3608.42
3361.28
3840
3404.78
3572.96
2956.18
3349.13
3708.05
2850.74
3478.83
3084.23
3020.34
3475.92
2447.55
3290.27
2933.57
3915.31
2600.24
2885.57
2889.56
2700.2
2978.7
2894.72
3372.31
3002.86
3081.95
3431.45
3644.75
3765.8
3372.62
3581.26
2806.84
3218.47
2957.54
3505.5
3257.08
2914.34
3282.74
2880.05
3346.23
3496.74
3180.83
3324.73
2996.63
3749.36
3388.49
3087.19
3645.61
3114.98
3554.67
3056.31
3627.71
3686.18
3382.82
3194.77
3560.92
2872.9
3631.2
3867.21
3427.37
3767.73
3465.14
3603.67
4097.55
3403.1
3730.15
3347.6
3552.73
3157.7
3077.44
3499.05
3056.22
3571.56
2999.43
3371.12
3038.54
3203.85
3433.14
3453.78
3455.85
2968.54
3424.38
3250.21
2981.57
3727.71
2813.11
3759.04
3498.99
3400.34
3526.87
3802.03
3374.5
3392.05
3260.95
3399.58
3360.98
3378.14
3529.5
3820.78
2888.77
2861.84
2796.63
2638.37
2850.96
3268.53
2756.63
2659.2
3085.74
2948.2
3968.41
2754.9
2678.72
2523.74
2962.7
2702.42
2743.16
3134.96
2899.59
3329.55
2639.38
2752.28
2763.36
3380.66
2598.13
2917.97
2795.26
2739.01
2972.49
3697.35
3343.7
3794.72
2914.23
3012.07
3349.5
2689.68
2924.5
2823.62
3206.54
2666.9
2584.51
3658.21
2936.64
2894.66
2919.25
3678.35
2960.83
2862.65
2856.13
3235.53
2828.68
2979.09
3069.07
2686.88
3351.51
3816.73
3874.47
3579.18
3104.45
3077.9
3446.17
3035.78
3228.49
3153.29
3570.38
3055.49
3094.63
3645.58
3219.11
3263.57
3107.86
3475.56
3313.4
3460.65
3332.84
3670.83
3459.65
3279.81
3326.75
3487.47
3719.2
4107.75
4230.46
4202.37
3177.31
2922.39
3643.02
3313.88
2975.11
3177.01
3435.6
3355.67
3385.43
3638.85
3377.07
3219.38
3371.45
3656.18
2903.4
3154.82
2912.09
3323.83
2978.52
2766.76
3086.78
3233.23
3583.74
4069.28
4060.33
3907.92
2861.53
3132.74
2877.21
2781.82
2868.74
2962.64
2931.08
2997.89
2707.52
3296.62
2561.34
2949.94
2892.64
2611.75
2957.64
3254.56
3221.53
3546.94
3784.5
3085.83
3055.05
3019.96
2639.43
2876.77
3938.95
3072.92
2728.66
2909.2
3623.99
2796.84
2793.07
3009.18
2768.32
2838.71
2632.88
3301.02
2659.81
2791.74
2849.05
3361.21
2761.89
3093.09
2847.2
2777.85
3011.45
3812.48
3286.18
3814.4
2974.7
2834.21
3227.86
2991.31
3006.39
3066.79
3341.18
2967.18
3012.71
3563.38
3174
3145.32
2972.93
3202.36
3608.51
3599.05
3422.17
3458.94
3527.14
3188.95
3290.89
3528.99
3713.1
3797.52
4027.55
3907.25
2912.07
2843.81
3272.71
3099.12
2654.38
3071.56
3432.02
2924.63
3616.34
2826.57
3075.61
2760.02
3444.44
3278.64
3379.42
3192.18
2992.4
3591.97
3262.9
3128.29
2834.03
2909.98
2957.08
3562.38
3302.71
3876.32
2884.04
2691.98
3328.42
2981.54
3007.96
2874.62
3128.42
3401.8
3417.24
3468.06
3285.23
3153.46
3279.93
3432.92
3390.18
3106.21
3281.44
3160.52
2991.67
3087.99
3112.58
3056.71
3436.97
3808.38
3841.9
3704.09
3428.03
3376.01
3682.25
3415.75
3280.96
3416.91
3686.61
3038.56
3209.71
3450.28
3230.1
3023.89
3314.95
3668.63
2870.62
3218.21
2854.47
3644.66
3321.12
3170.42
2866.85
3180.79
3360.16
4143.98
3989.16
4115.47
3505.96
3512.36
3524.39
3354.98
3229.54
3201.56
3326.32
3251.73
3827.51
3071.53
3094.97
2967.93
3560.37
3166.47
3213.14
2744.57
2963
3294.07
3536.65
3494.58
3449.99
3890.9
3596.98
3537.82
3392.7
3464.39
3689.7
4155.56
4188.17
4326.15
3743.85
3353.67
3696.49
3483.84
3540.07
3790.01
4224.19
3539.74
3766.15
3919.24
3711.03
3506.81
3721.18
3949.76
3310.15
3707.4
3476.57
4198.3
3715.32
3476.27
3233.25
3416
3611.37
4229.43
4212.04
4282.43
3175.17
3096.05
3619.76
3178.12
3087.71
3167.33
3429.35
2997.41
3117.7
3369.59
3115.02
3021.88
3131.08
3586.64
3305.67
3201.37
3285.89
3426.77
3179.18
2960.36
2914.04
3149.33
3373.07
4086.34
3992.97
4031.23
3162.53
3106.56
3366.87
3152.18
2872.95
3093.61
3198.14
3381.46
3187.75
3892.65
3262.25
3156.14
3024.7
3257.27
2966.21
3160.76
2773.85
3159.75
3244.89
3021.58
3100.64
3296.54
3936.96
3658.35
3970.41
3581.33
3318.93
3116.08
2958.5
3348.26
3731.33
2814.2
3506.67
3243.19
3374.44
3424.29
3171.2
3032.1
2968.27
2700.26
3557.22
3137.44
3029.62
3228.34
3291.73
3525.83
3615.48
4105.71
3723.84
3847.14
3628.16
3557.24
3419.85
3106.99
3293.56
3063.17
3240.73
3693.88
2998.4
3342.74
3074.77
3024.16
3293.02
4089.6
3838.01
3892.38
3426.49
3692.84
3202.11
3180.04
3222.49
3499.19
3591.84
3432.29
3561.28
3816.4
2997.96
3088.9
2858.03
3100.39
3463.74
4168.08
4033.18
3908.36
3166.81
3200.74
2992.57
3238.93
3817.45
3046.53
3156.29
2969.47
3049.92
3279.56
2981.4
3848.94
3199.35
3016.38
3087.14
3577.43
3538.29
3919.17
2958.99
3219.72
2962.89
3058.53
3425.43
3125.54
3431.5
3082.32
3049.04
3241.42
3429.51
3524.15
3325.91
3276.5
3441.12
3788.52
3875.89
3887.18
2666.41
3672.4
3228.97
3238.29
3702.17
2879.69
2962.24
2770.21
2996.11
3527.18
2945.16
3050.69
2646.77
2932.57
3129.36
3497.66
3079.96
3422.55
SCALARS SignedDistance double 1
LOOKUP_TABLE default
215.389
212.29
186.7
174.677
154.932
225.924
237.346
168.164
225.167
224.561
242.284
239.928
277.998
223.599
271.034
266.563
212.603
154.29
163.502
183.283
201.283
266.452
214.988
267.481
182.086
173.792
225.365
231.59
179.866
223.067
200.924
174.833
215.802
172.083
139.973
145.798
185.093
187.294
183.22
216.708
215.083
249.729
243.365
276.218
252.853
229.39
253.439
261.618
249
249.221
222.931
248.456
214.026
245.769
266.352
208.646
246.435
250.291
168.076
182.284
174.14
165.689
162.171
158.472
159.398
176.984
200.042
170.796
176.425
235.96
199.891
208.266
235.411
270.196
258.249
281.631
260.149
265.75
240.465
218.156
242.261
247.059
243.907
218.516
197.561
199.14
215.069
202.099
166.02
177.532
160.359
246.004
240.545
252.567
249.399
219.522
229.361
201.27
195.287
228.589
166.973
171.04
230.402
195.867
205.649
168.679
167.02
195.725
169.822
192.124
193.184
225.726
206.247
167.426
181.11
198.773
182.534
222.883
129.545
141.939
158.326
178.113
172.271
131.618
148.2
174.828
178.64
186.802
173.86
166.872
176.389
173.478
213.06
198.771
212.772
188.044
185.893
227.877
211.211
238
228.515
216.899
217.838
255.47
244.092
235.746
244.767
170.092
193.214
191.722
185.741
151.86
202.024
216.121
199.973
237.118
186.315
192.757
167.048
258.538
246.55
234.136
228.542
246.56
234.331
277.843
260.272
259.215
267.021
262.671
272.511
234.332
245.161
250.378
238.135
240.965
225.784
278.092
257.39
273.499
237.81
236.478
224.2
260.096
249.296
259.244
222.625
236.119
236.251
269.977
251.177
264.683
236.087
216.265
263.856
253.706
210.162
233.086
229.638
236.429
246.75
265.852
255.212
254.636
256.566
268.142
211.669
232.045
231.966
231.236
229.743
209.098
263.21
249.563
260.798
260.702
258.876
244.253
197.073
197.34
189.137
190.74
168.633
174.636
158.328
193.318
189.463
150.936
165.705
157.787
186.003
191.734
163.998
159.582
162.705
154.653
158.131
162.434
156.623
158.794
152.867
172.03
157.448
154.213
187.848
205.921
171.442
176.282
196.388
183.566
186.51
169.056
167.708
182.614
174.578
175.354
168.968
170.742
243.751
225.926
223.761
198.419
218.759
219.862
194.382
210.751
196.827
175.41
185.553
183.98
220.706
216.861
216.456
238.054
256.287
256.522
255.443
277.14
266.206
268.681
243.954
230.182
262.5
252.452
284.205
274.461
261.92
266.396
273.207
245.611
269.481
263.94
243.704
225.606
266.116
259.518
254.358
255.443
267.153
222.386
232.843
228.689
229.987
215.577
243.919
253.337
235.648
233.601
221.502
257.554
246.103
259.347
216.108
231.19
229.079
255.039
242.794
257.138
211.01
212.393
210.059
209.607
186.213
197.463
185.382
225.06
220.005
196.598
206.346
198.097
215.205
212.038
170.894
171.645
156.984
173.04
170.487
160.91
170.609
172.03
180.507
198.609
188.711
185.904
251.775
238.798
255.324
253.618
237.728
247.995
245.56
255.256
258.921
240.244
247.923
239.367
259.441
257.183
201.624
206.631
192.131
238.076
224.23
230.365
212.709
215.154
224.124
249.728
242.182
244.21
216.914
234.382
186.623
199.316
224.197
211.207
208.617
169.559
168.206
174.752
168.216
168.501
168.441
173.318
233.603
215.666
220.578
208.978
211.51
225.924
191.065
199.444
185.816
179.473
180.107
192.968
164.113
167.8
163.284
163.027
169.251
167.711
174.374
202.043
184.866
180.973
180.994
194.233
169.226
163.184
208.048
207.964
224.057
186.114
196.322
182.538
211.387
207.052
192.656
168.117
176.403
177.794
188.147
198.091
188.141
194.16
193.843
216.199
156.908
173.925
150.214
210.385
210.649
220.441
175.543
190.763
187.177
220.408
204.717
199.125
143.384
138.093
157.802
135.196
131.34
129.848
163.621
145.961
156.885
171.876
159.219
150.142
183.914
170.611
154.665
175.408
178.245
185.556
195.191
139.96
140.184
139.706
135.587
134.303
139.185
138.637
178.516
188.387
196.671
190.435
186.199
177.893
165.451
178.123
158.197
159.45
155.703
185.455
165.027
166.758
179.626
173.334
172.786
167.13
175.784
178.243
171.585
177.081
171.499
179.796
171.663
177.388
232.101
221.891
229.409
190.953
207.588
197.776
198.237
204.018
190.56
181.67
182.658
187.215
172.719
177.442
182.199
175.228
199.43
184.504
199.509
232.711
230.329
229.358
230.006
221.701
209.862
195.887
238.595
236.883
219.744
220.361
234.354
225.643
215.244
235.494
230.681
198.26
217.325
207.491
191.328
213.114
202.064
209.455
223.282
241.763
245.659
244.202
242.953
249.64
238.29
225.515
235.047
235.166
228.538
231.737
247.28
240.541
240.293
223.505
239.473
232.538
168.498
173.953
169.237
164.715
167.69
208.207
202.776
204.878
194.765
183.1
209.138
181.572
194.911
204.274
202.471
179.899
190.68
178.612
208.111
162.89
182.371
204.961
208.838
141.545
168.267
151.922
138.219
143.595
226.023
219.335
222.626
205.825
190.35
163.036
173.635
188.914
229.24
201.133
212.247
231.643
233.693
186.414
211.945
198.82
186.77
191.176
250.644
238.441
246.043
245.815
229.816
206.635
216.769
223.291
203.19
200.732
200.478
187.494
176.071
214.407
184.542
198.048
208.443
203.961
166.882
167.65
165.444
164.83
171.793
187.28
177.384
173.577
245.941
252.838
250.901
256.998
263.75
242.519
224.014
236.776
257.109
258.832
217.879
251.537
235.795
214.024
214.97
262.359
240.503
255.387
