# vtk DataFile Version 4.2
vtk output
ASCII
DATASET POLYDATA
POINTS 642 double
-226.412 400.037 48.1686
227.243 403.801 47.5447
-229.477 -345.048 52.1885
233.271 -349.455 52.482
0.492675 -214.824 445.196
0.415019 246.744 415.729
0.587894 -187.397 -299.093
0.332391 267.923 -326.932
360.228 33.8574 -174.362
356.376 27.2167 279.536
-353.126 33.7584 -171.027
-349.309 27.3086 276.014
-328.806 237.56 171.126
-208.539 156.776 398.391
-120.274 348.874 246.86
121.719 351.418 248.91
0.471381 471.852 46.7782
139.671 400.518 -173.575
-137.344 397.797 -171.928
-218.264 167.092 -304.863
-349.409 249.58 -81.2794
-394.678 31.8015 51.4234
211.361 158.221 401.627
323.932 234.919 171.564
-220.543 -112.817 414.929
0.698078 27.8573 504.188
-338.941 -185.232 -76.0603
-344.172 -189.454 195.65
0.589409 33.8299 -391.177
-209.831 -94.2521 -294.159
352.847 251.966 -83.4603
220.544 168.291 -307.113
352.389 -193.516 197.193
223.936 -113.939 417.906
143.461 -346.529 289.14
-142.249 -344.828 287.762
0.243025 -409.007 52.3734
-135.307 -326.366 -163.128
137.379 -328.465 -164.541
212.348 -95.5533 -296.333
345.737 -190.565 -78.4661
402.196 28.2643 53.8906
-291.675 328.389 114.042
-237.105 305.806 215.175
-180.8 392.771 152.433
-291.332 94.5314 348.412
-278.577 198.988 298.143
-345.896 131.711 234.611
-64.2649 308.269 345.193
-171.597 265.782 340.417
-108.083 209.051 421.537
-68.9725 432.548 152.474
-117.982 455.263 46.9909
65.5528 308.889 345.736
0.514615 365.797 260.421
120.404 457.9 47.1544
70.5667 433.584 152.366
181.5 395.563 152.22
-73.9021 463.902 -66.812
-190.453 417.4 -64.1768
194.185 422.749 -65.499
75.0678 465.409 -67.2048
-71.6195 344.964 -262.053
0.414917 417.341 -184.644
72.674 345.843 -262.853
-258.198 336.627 -134.431
-302.087 339.087 -18.8627
-114.943 224.437 -330.955
-186.131 293.206 -251.784
-367.086 148.343 -132.08
-299.25 218.352 -202.345
-299.679 101.248 -248.821
-360.073 257.147 48.2376
-383.296 39.8569 -61.8951
-401.851 148.367 -18.6307
-380.255 148.159 111.935
-381.41 27.1206 170.109
234.139 304.462 215.335
292.89 329.978 114.003
109.824 209.949 423.451
173.984 267.631 342.707
351.741 132.8 236.674
282.441 200.807 301.228
295.804 95.2321 351.744
-111.521 97.793 470.066
0.627531 144.571 474.843
-299.286 -44.6675 355.396
-224.594 27.3656 423.337
0.133938 -93.9483 487.463
-114.132 -44.1508 477.078
-118.605 -172.637 449.517
-379.235 -82.1303 123.752
-359.288 -87.5411 243.339
-348.71 -80.0123 -126.742
-383.535 -83.8581 -13.8901
-293.452 -271.978 128.068
-354.432 -196.261 51.5154
-298.209 -277.054 -16.0712
-228.247 33.2423 -320.132
-294.604 -32.6872 -243.995
0.472548 152.673 -377.188
-116.091 104.542 -370.992
-110.241 -148.83 -312.541
-114.268 -36.9252 -363.538
0.334064 -82.8588 -364.367
188.404 295.504 -254.141
116.047 225.327 -332.387
303.054 340.733 -20.1746
260.74 340.113 -136.211
304.458 101.485 -251.853
302.017 220.423 -205.305
368.129 147.116 -133.831
299.214 -276.064 129.172
266.211 -285.503 249.675
196.873 -362.093 178.388
303.322 -45.3217 358.332
307.962 -164.273 320.502
367.77 -89.2814 246.214
76.0942 -295.793 383.898
195.813 -244.448 374.861
119.938 -174.343 451.386
75.1867 -403.876 181.099
123.197 -398.3 51.8005
-75.1551 -294.737 382.774
0.35696 -362.329 299.562
-121.266 -396.171 51.9554
-74.4217 -402.775 180.964
-193.634 -358.289 177.876
74.8685 -392.754 -62.0699
193.824 -356.237 -61.6552
-190.891 -352.69 -60.5354
-73.7796 -392.337 -61.9721
71.5439 -270.98 -244.55
0.319525 -341.027 -172.985
-70.3386 -270.646 -244.311
257.511 -275.09 -130.834
304.382 -281.587 -17.184
111.435 -150.056 -313.733
182.582 -227.031 -238.722
353.925 -79.584 -127.534
291.962 -154.646 -193.368
299.313 -33.5509 -247.071
361.719 -201.235 51.55
391.185 36.8283 -65.3713
394.704 -85.9411 -14.8447
387.07 -83.5677 124.675
391.418 27.5734 172.793
115.598 -43.8179 480.285
227.979 27.8104 427.446
113.279 98.1699 472.971
-263.218 -282.842 249.491
-193.656 -242.264 372.248
-303.448 -163.16 317.802
-179.766 -224.785 -236.164
-252.863 -271.396 -128.271
-287.787 -151.496 -190.581
231.083 33.2016 -322.852
115.133 -37.066 -364.83
116.872 104.696 -372.652
376.968 139.026 113.886
398.459 149.639 -20.3124
361.389 258.535 48.0607
-262.531 366.974 82.0458
-239.584 365.053 134.72
-205.304 400.366 102.232
-286.801 275.794 195.722
-267.629 323.162 165.309
-313.895 285.089 143.281
-152.691 378.273 195.268
-212.765 355.352 182.399
-179.92 328.581 230.686
-323.72 61.4173 314.701
-323.487 114.398 293.647
-351.043 80.9491 257.114
-247.482 179.861 351.224
-287.679 148.964 326.006
-252.656 126.545 376.522
-335.435 185.524 201.41
-315.498 167.202 268.417
-302.924 217.417 236.635
-32.5963 280.513 382.966
-86.9193 262.7 387.175
-53.9452 229.884 422.194
-147.301 308.542 302.289
-119.474 289.88 345.619
-93.5444 328.961 304.103
-159.973 184.524 413.526
-142.292 240.165 383.585
-192.05 214.612 373.157
-259.014 254.323 261.585
-228.465 235.363 322.75
-205.536 285.035 284.811
-151.27 427.927 101.718
-172.827 430.732 47.32
-97.1827 397.637 197.225
-125.014 416.493 153.376
-60.8538 468.958 46.9627
-93.6035 448.926 102.021
-36.2451 458.001 101.546
33.5434 280.747 383.317
0.396226 312.768 349.912
62.2717 362.541 258.021
32.9282 339.038 309.948
95.2744 330.541 304.636
-31.8047 338.542 309.857
-60.3536 361.416 256.997
175.488 435.483 47.1796
153.478 431.84 102.007
206.147 403.755 102.104
37.3584 458.582 101.633
95.5432 450.831 102.37
62.0733 469.969 47.0161
152.956 379.654 196.024
126.763 419.3 153.605
98.8003 398.842 197.996
-33.8471 405.932 204.513
34.6038 405.425 204.369
0.349154 435.92 153.195
-156.433 443.73 -9.15313
-210.522 412.502 -8.00381
-37.3986 475.758 -9.82373
-97.4735 465.827 -9.9079
-165.779 411.851 -119.255
-133.962 446.233 -67.2832
-107.392 436.285 -121.5
213.051 417.692 -9.15564
159.653 447.857 -9.52
109.051 438.375 -122.425
136.447 449.155 -67.9612
168.816 415.602 -120.794
99.2231 467.943 -10.0898
38.3869 476.614 -9.93762
-35.9489 309.125 -298.254
0.329709 349.3 -266.897
36.6854 309.457 -298.66
-70.7173 413.555 -182.287
-36.6651 385.369 -226.485
-105.693 375.148 -219.701
107.364 376.905 -220.931
37.4866 385.72 -226.695
71.8881 414.808 -182.959
0.453572 468.607 -68.1894
38.4344 447.759 -128.636
-37.4762 446.892 -128.261
-249.801 380.983 -41.9562
-267.267 373.188 14.3372
-199.838 370.633 -154.87
-226.391 379.778 -100.854
-329.091 297.025 -50.8651
-283.237 340.716 -77.5276
-308.274 296.432 -109.697
-58.1529 248.2 -332.349
-94.1264 288.022 -300.867
-203.877 231.809 -281.585
-152.082 261.256 -294.867
-168.736 197.217 -321.936
-130.669 322.504 -260.354
-163.381 348.836 -215.2
-360.689 90.9399 -152.013
-335.005 125.493 -190.629
-330.053 67.1586 -211.963
-329.051 236.162 -144.781
-338.846 184.814 -169.955
-364.152 199.146 -109.77
-262.149 134.902 -280.215
-300.35 160.995 -226.702
-260.208 193.802 -255.893
-225.562 319 -196.145
-246.497 258.36 -230.668
-282.933 280.684 -172.021
-301.306 338.305 48.4101
-361.307 257.573 -16.2401
-335.598 300.43 14.6939
-329.527 295.782 81.8109
-348.998 250.399 111.481
-372.746 37.5497 -119.409
-381.144 94.7129 -97.2034
-401.622 99.0441 11.7585
-397.928 99.3525 -39.7634
-389.873 38.6171 -3.64085
-388.855 149.712 -75.0936
-383.204 199.057 -50.999
-369.424 80.5224 205.589
-370.259 27.305 224.779
-364.09 193.799 142.923
-362.098 138.784 171.601
-390.818 26.7022 110.445
-378.026 84.8439 143.761
-386.193 92.1552 79.6091
-388.447 203.741 14.2507
-398.715 151.293 44.8817
-380.981 201.775 81.5395
240.311 367.143 134.589
263.492 369.196 82.0593
179.404 331.091 233.552
212.443 357.482 182.012
314.303 287.363 140.981
268.045 325.351 163.305
283.733 273.044 194.842
55.1587 230.198 422.961
88.4971 263.499 388.377
194.771 216.447 375.973
144.418 241.624 385.763
162.198 185.826 416.281
121.37 291.231 347.074
149.003 310.506 303.905
357.603 81.2154 259.83
328.825 115.45 296.606
329.397 61.3485 318.018
305.902 215.967 241.431
320.266 168.568 271.084
339.327 182.812 208.921
256.22 127.825 379.9
292.033 150.603 329.159
251.009 181.763 354.375
207.008 286.355 288.355
231.544 237.385 325.629
261.174 254.024 266.442
-54.7783 179.497 453.078
0.503046 198.219 448.567
-162.758 129.386 438.308
-111.302 155.364 449.563
0.704347 87.0906 493.797
-55.929 121.852 477.497
-56.3134 63.5872 492.748
-325.662 -9.16366 317.014
-298.08 26.8977 354.726
-225.152 -42.6802 422.877
-263.466 -9.14676 391.396
-263.451 -79.4931 388.274
-261.026 62.2829 389.059
-219.734 93.9702 415.329
-0.139692 -156.598 468.14
-59.6548 -136.339 472.005
-61.271 -196.835 453.613
-57.0089 -7.78004 498.405
-58.0157 -69.4866 487.635
0.676952 -31.5177 502.006
-172.373 -144.641 436.794
-117.819 -109.734 464.988
-169.949 -80.9319 450.403
-170.656 63.3073 452.252
-172.954 -8.6121 455.6
-114.338 28.1184 481.259
-373.58 -28.2388 208.188
-355.97 -30.6106 260.354
-392.551 -25.5944 87.5411
-384.512 -26.0611 147.443
-356.14 -140.808 221.312
-370.116 -86.4254 186.825
-364.718 -136.797 162.579
-352.956 -19.659 -153.704
-365.469 -20.4703 -95.0087
-367.589 -136.425 -45.8347
-370.16 -85.6491 -68.3744
-348.435 -135.565 -101.416
-384.836 -26.573 -35.0341
-392.296 -27.3849 19.7106
-264.77 -313.08 89.7929
-300.959 -280.1 51.9789
-267.022 -314.559 17.4622
-344.671 -192.351 124.257
-328.722 -237.629 88.7169
-324.926 -235.864 164.928
-322.001 -233.676 -47.4208
-330.587 -238.934 18.061
-351.488 -193.82 -12.636
-386.252 -83.8325 51.8726
-376.079 -142.353 17.6025
-371.426 -140.36 87.7407
-302.042 33.354 -250.973
-327.281 0.0890053 -210.038
-226.857 100.736 -317.785
-266.821 67.9445 -288.243
-255.211 -63.629 -272.401
-264.587 -0.871644 -285.518
-222.768 -32.6204 -311.614
0.372925 210.93 -354.79
-58.5574 190.712 -359.486
-58.5686 69.6056 -387.445
-58.9161 129.129 -378.678
0.605661 93.2453 -390.04
-117.311 165.141 -355.813
-169.963 137.708 -343.389
-56.9257 -169.561 -309.775
-56.3091 -116.894 -344.897
0.452397 -134.103 -339.002
-165.259 -68.0808 -333.498
-113.391 -93.7044 -343.075
-161.259 -123.336 -307.557
0.436455 -25.7545 -381.811
-57.7918 -60.7377 -368.404
-58.1379 -2.46727 -382.239
-175.499 69.0137 -351.261
[...]
POINT_DATA 642
SCALARS Mean_Curvature double 1
LOOKUP_TABLE default
0.00540243
0.00500392
0.00590429
0.00587187
0.00265179
0.00624212
-0.00254282
0.00508451
0.00613775
0.00585219
0.00631882
0.00551562
0.00398347
0.00489548
-0.0010408
7.40019e-05
0.00358567
0.00540519
0.00534044
0.00499992
0.0039462
0.00355933
0.00492068
0.00101657
0.00388951
0.00643069
0.00480006
0.00595745
0.00493565
0.00529016
0.00548792
0.00483202
0.00706157
0.00435385
0.0051728
0.00519501
0.00260301
0.00519471
0.0052416
0.0052038
0.00604821
0.00442431
0.00528686
0.000786999
0.00521139
0.0049935
0.00458965
0.00459416
0.00486536
0.00489811
0.00482417
0.00544925
0.00567711
0.00461053
0.000153573
0.00560797
0.00524648
0.00524442
0.00625433
0.00513245
0.00637345
0.00611829
0.00469619
0.00358735
0.00461919
0.00480049
0.00609738
0.00419485
0.00405026
0.00590703
0.00475814
0.00501273
0.00474149
0.000979902
0.00900775
0.00363308
0.00323391
-0.00189308
0.00559011
0.00487957
0.00507041
0.00461807
0.00499029
0.00476207
0.00470996
0.00506066
0.00551697
0.0046201
0.003533
0.00331006
0.00588987
0.00108238
0.00580439
0.002125
0.004548
-0.00223335
0.00508979
0.00537839
0.0055288
0.00510549
0.00452223
0.00520094
0.00330938
0.00534985
0.00464022
0.00414286
0.004154
0.00493368
0.00448206
0.00465283
0.00513981
0.003538
-0.00251448
0.0040831
0.00635317
0.00343782
0.00541383
0.00599387
0.00536622
0.00523483
0.00664915
0.00834997
0.00523927
0.00530393
0.00196112
0.00514009
0.00840477
0.00614997
0.00476014
0.00530719
0.00528534
0.00553097
0.00455709
0.00268078
0.00534337
0.00508327
0.00528687
0.0031586
0.00534121
0.000568709
0.00523423
0.00508287
0.00565047
0.00297648
0.0085818
0.000799987
0.00541134
0.00390888
0.0049555
0.00486871
0.00616236
0.00506016
0.00644283
0.00518563
0.00512327
0.00525901
0.00546193
0.00514869
0.00499896
-0.00171824
0.00675129
0.00560285
0.0051656
0.00535525
0.00465748
0.00301136
0.00578985
0.0053268
0.00476885
0.00630563
-0.00295995
0.00504583
0.0049423
0.00497147
0.00491318
0.0049617
0.00494205
0.000225334
0.00454236
0.0027176
0.00489257
0.00483236
0.00471391
0.00462477
0.00509122
0.00497881
0.00488315
0.00496908
0.00487873
0.00334046
0.00480263
0.0044
0.0045384
0.00414739
0.00385957
0.00505068
0.00577994
0.00581359
0.00518895
0.00477408
0.00539272
0.000465737
0.00504007
0.00489614
0.00518366
6.51122e-05
0.00522964
0.00541796
0.00462337
0.00514065
0.00581387
0.00545011
0.00389449
0.00569074
0.00395749
0.00456923
0.00354056
0.0029769
0.00583484
0.00424429
0.0058856
0.00631753
0.00487682
0.00629446
0.00519048
0.00508359
0.00627703
0.00497504
0.00598428
0.00501389
0.00612607
0.00594847
0.00478181
0.00433257
0.00470718
0.00549854
0.00460341
0.00513777
0.00508906
0.00432623
0.00541753
0.00422104
0.00483393
0.00473047
0.0047058
0.00543097
0.00414436
0.00405489
0.00479096
0.00457594
0.00489578
0.00387814
0.0047166
0.00372914
0.00427724
0.00473752
0.00467831
0.00419979
0.00342514
0.0023661
0.00479096
0.00441663
0.00704887
0.0058802
0.00507699
0.00282123
0.00349762
0.00438055
0.00437441
0.00490362
0.00523704
0.00563694
0.00562886
0.00526725
0.00467673
0.00597788
0.00282617
0.00681636
0.00632812
-0.00219437
0.00673783
0.00607057
0.00564234
0.00549602
0.00744444
0.000228165
0.00385069
0.000360164
-0.0032647
0.00626747
0.00796977
0.0068571
0.00534304
0.00494777
-0.00168618
0.00605799
0.0066945
0.00655848
2.44467e-05
0.0045138
0.00480592
0.00500267
0.00506167
0.00493493
0.00510475
0.00469892
0.00482093
0.00489761
0.00473885
0.00359247
0.00485821
0.00368064
0.00489446
0.00503405
0.00499697
0.0048355
0.00510151
0.00441563
0.00483447
0.00516603
0.00479265
0.00470391
0.00533227
0.00485145
0.00513382
0.0024478
0.00459531
0.00456464
0.00285309
0.00474338
0.00495585
0.00493006
0.00265102
0.00390567
0.00691594
0.00643026
0.0033605
0.00588175
0.00582607
0.00333378
0.0039769
0.00473006
0.00409464
0.00514473
0.00429223
0.00328179
0.00435694
0.00294032
0.00692384
0.00176867
0.00398482
0.00580081
-0.00282209
0.00616104
0.00384997
0.00551871
0.00379812
0.00387757
0.0036396
0.00523311
0.00523669
-0.00121822
0.00492491
0.00768533
0.00523481
0.00523068
0.00463539
0.00316797
0.00659358
0.00362041
0.00550349
0.00506431
0.00546666
0.00495496
0.00546395
0.0052717
0.00533472
0.00331451
0.00450472
0.00551528
0.00463208
0.0051649
0.00504698
0.00528047
0.00142881
0.00538389
0.00476776
0.00531008
0.00511982
0.0047995
0.00429907
0.00495866
0.00455734
0.00508716
0.00511675
0.00539523
0.00465366
0.0038534
0.00469436
0.00455211
0.00455229
0.00443134
0.00401466
0.00466095
0.00485015
0.00491307
0.00521908
0.0046288
0.00445919
0.00479004
0.00598114
0.00349761
0.004944
0.00354199
0.00327108
0.00484192
0.00586215
0.00444073
0.00523408
0.00425528
0.00482568
0.00440253
0.00374487
0.00490873
0.00142374
0.00590307
0.00739933
0.00745825
0.00491316
0.0071014
0.00469563
0.00348521
0.00587104
0.00237785
0.00581415
0.00448041
0.00567852
0.00716431
0.00577041
0.00553328
0.00583087
0.00516174
0.00765965
0.00522308
0.00529892
0.00532813
0.00528827
0.00559165
0.00520962
0.00473257
0.00490222
0.00511891
0.000872786
0.00524026
0.00482274
0.00646002
0.00436891
-0.000158972
-3.63871e-05
0.00602283
0.00180867
0.00501954
0.00599881
0.00518339
0.00592553
0.00504086
0.00522077
0.000875832
0.000574388
-0.000415842
0.000394421
0.00513939
0.00542218
0.00629562
0.00538293
0.0055572
0.00533784
0.00511545
0.00537606
0.00536782
0.00454099
0.00607976
0.00528242
0.00541917
0.00543178
0.00538567
0.0054528
0.00528072
0.00535185
0.00528934
0.00562777
0.00460574
0.00447108
0.00216457
0.00469373
0.00480589
0.00501706
0.00548121
0.00512449
0.00483997
0.00557423
0.00313702
0.00467335
0.00489685
0.00527788
0.00519902
0.00509518
0.00526537
0.00550941
0.00523448
0.00514468
0.00181173
0.00442061
-0.000511941
0.00352382
0.00466988
0.00504722
0.00523168
0.00575206
0.00430111
0.00506127
0.0059362
0.00250025
0.00380027
0.00536591
0.00310807
-0.00145537
0.00516325
0.00550961
0.00524131
0.00522308
0.00550713
0.00569887
0.00516093
-0.00164079
0.00757134
-0.00152395
0.0033615
0.00107682
0.000724909
0.00490633
0.00399223
0.00517066
0.00508005
0.00386486
0.00290783
0.00288099
0.00126854
0.00572953
0.00448898
0.00298442
0.00338247
0.00143102
0.00322632
0.00281882
0.00432212
0.00671157
0.00472643
0.00471614
0.00455002
0.00419397
0.00292803
0.00480078
0.00536491
0.00500207
0.00471461
0.00478102
0.00475592
0.00481371
0.00534166
0.00670177
0.00553911
0.00462688
0.00553466
0.00510448
0.00506661
0.00568799
0.00518322
0.00525647
0.00509627
0.0056416
0.00697814
0.00489062
0.00328708
0.00584103
0.00493819
0.00497767
0.00487349
0.0042615
0.00524606
0.00496732
0.00317016
-0.000167005
0.00526704
0.00498635
0.005314
0.00525326
0.00510877
0.00413701
-0.00128281
0.00298438
0.003306
0.00494121
0.00514288
0.00489976
0.00509733
0.00542731
0.00523091
0.00515439
0.00560481
0.00504385
0.00526398
0.00479965
0.00491785
0.00496968
0.00522778
0.00455617
0.00514177
0.00487567
0.00499188
0.0062047
0.00524234
0.00497114
0.00523735
0.00563163
0.00194413
0.00260813
0.00466744
-0.00119588
0.00374543
0.00544823
0.00649969
0.00544439
-0.00161275
0.00527133
0.00639864
0.00563027
0.00554659
0.00529469
0.00762795
0.00667234
0.00702908
SCALARS CoVolArea double 1
LOOKUP_TABLE default
2912.68
2943.12
3043.43
3097.65
3290.59
2736.39
3208.76
3146.76
2731.81
2836.69
2714.81
2756.38
3565.06
3572.73
4002.99
3932.08
3852.01
4046.23
4003.91
3887.05
3783.94
3803.09
3637.95
3753.04
3968.24
3811.93
3534.04
3634.54
3888.83
3809.41
3754.43
3957.79
3731.99
4057.72
4251.18
4187.6
4232
3767.28
3815.36
3885.24
3638.58
3763.5
3298.51
3954.69
3251.55
3350.59
3647.04
3400.47
3157.69
3540.72
3409.37
3651.84
3537.55
3195.04
4045.39
3565.83
3688.62
3260.49
4159.48
3721.6
3729.91
4203.7
3832.28
4324.41
3863.54
4107.1
3535.5
3806.5
4194.23
3421.76
4027.33
3585.36
3714.64
3689.78
3307.54
3710.17
3377.85
4167.71
3261.07
3439.91
3546.06
3269.41
3613.69
3446.26
3958.72
3551.5
3585.7
3985.97
4014.99
4251.12
3875.42
3967.36
3365.77
3601.71
3574.48
3868.59
3827.87
3491.71
3912.93
3428.07
3811.53
4078.54
3627.63
3938.21
3533.35
4237.57
3837.34
3626.76
4175.15
3629.78
4091.87
3572.34
3977.57
4259.25
3856.95
3674.01
4161.4
3447.05
4076.27
4395.03
3914.92
4282.84
3885.33
4052.67
4535.73
3837.41
4256.44
3818.85
4104.74
3694.67
3626.38
4069.17
3555.75
4086.61
3520.38
3976.75
3602
3651.27
3969.74
3761.83
3968.96
3507.21
3968.53
3579.88
3626.07
4077.99
3326.47
4259.14
4049.26
3989.81
4135.96
4341.12
4022.35
3925.22
3876.35
3915.94
3976.83
3976.94
4107.16
4146.32
3573.33
3607.85
3375.06
3280.74
3408.25
3747.72
3313.18
3225
3451.49
3411.72
4152.3
3302.86
3267.89
3124.84
3589.44
3290.38
3316.7
3534.07
3400.06
3801.98
3216.88
3334.5
3322.65
3801.95
3202.39
3363.31
3357.22
3329.22
3601.18
4233.7
4019.32
4275.64
3493.44
3531.82
3792.87
3287.97
3520.29
3446.23
3818.62
3235.69
3191.91
4010.68
3411.19
3358.69
3397.02
4016.79
3519.66
3477.95
3423.04
3837.11
3459.81
3559.38
3456.31
3293.56
3803.35
4310.74
4347.94
4198.93
3671.37
3590.06
4057.02
3655.75
3730.3
3737.05
4142.67
3591.62
3690.48
4200.02
3797.93
3775.11
3713.31
4077.62
3765.79
3914.43
3779.67
4198.54
3922
3767.37
3805.68
3940.73
4234.15
4723.33
4794.46
4774.32
3706.22
3479.83
4144.29
3799.56
3517.44
3701.67
3979.85
3781.53
3852.15
4120.99
3837.69
3702.12
3845.4
4156.34
3410.9
3639.06
3436.41
3911.98
3553.01
3398.66
3588.94
3702.27
4070.85
4627.7
4607.59
4511.12
3465.1
3787.82
3474.25
3382.71
3552.49
3383.51
3413.46
3584.31
3265.28
3613.52
3253.7
3695.95
3375.9
3177
3563.58
3600.31
3560.03
3760.21
4057.3
3968.04
3820.82
3845.81
3284.67
3440.29
4175.06
3499.28
3277.4
3411.8
3969.67
3346.57
3366.26
3644.57
3360.4
3399.04
3232.86
3775.34
3239.65
3367.49
3384.89
3815.99
3333.78
3477.41
3402.61
3365.57
3645.79
4304.69
3998.34
4306.44
3528.88
3388.25
3820.26
3541.9
3563.46
3615.21
3949.23
3452.4
3537.38
4071.85
3669.04
3641.29
3520.68
3801.08
3960.9
4005.21
3884.22
4049.03
3963.26
3728.37
3784.73
3957.6
4192.21
4426.02
4594.38
4527.02
3405.95
3361.44
3756.1
3513.85
3251.92
3494.85
3844.31
3391.91
3823.64
3504.83
3505.73
3299.1
3720.13
3754.19
3771.51
3681.29
3525.05
4014.49
3723.63
3618.86
3405.61
3488.78
3622.69
4151
4022.91
4357.83
3467.01
3273.03
3931.06
3557.92
3489.68
3472.04
3766.53
3808.18
3867.52
4037.94
3793.24
3677.57
3785.91
4011.59
3710.84
3600.54
3644.57
3785.74
3542.61
3548.87
3617.44
3605.07
4001.25
4469.8
4491.18
4387.12
3885.12
3796.98
4191.24
3884.78
3750.29
3874.63
4167.15
3562.87
3739.02
4022.72
3751.4
3570.05
3823.78
4182.97
3433.14
3694.36
3421.18
4127.51
3774.8
3659.69
3448.56
3677.07
3953.89
4694.09
4589.12
4662.85
3871.74
3929.78
3896.79
4010.95
3771.79
3690.03
3846.02
3816.86
4345.53
3546.42
3623.82
3473.92
4131.74
3712.92
3703.97
3353.78
3578.55
3964.74
3980.95
4009.74
3902.36
4391.9
4077.76
3998.84
3858.42
3981.24
4236.78
4766.51
4784.96
4881.37
4086.76
3789.71
4259.09
3951.36
3898.62
4111.86
4489.58
3979.89
4168.31
4408.62
4135.7
3972.84
4143.94
4430.6
3744.13
4053.61
3854.93
4475.78
4063.61
3858.61
3766.16
3897.99
4198.08
4821.07
4809.36
4799.95
3721.46
3621.47
4117.97
3719.78
3626.84
3719.85
4007.04
3539.22
3670.53
3962.22
3675.83
3569.96
3683.25
4096.6
3654.95
3654.43
3643.72
3985.03
3671.03
3510.4
3473.66
3652.1
3948.32
4637.18
4573.17
4597.36
3706.68
3620.17
3958.51
3699.32
3461.93
3655.71
3832.8
3708.85
3652.33
4204.95
3706.86
3601.46
3568.85
3870.11
3441.85
3624.54
3347.81
3774.73
3677.32
3488.78
3567.67
3717.91
4230.96
4340.37
4492.75
4280.6
3797.5
3762.86
3550.49
3804.36
4130.38
3338.3
3774.15
3764.83
3710.13
3690.64
3587.18
3676.21
3483.73
3269.14
3966.49
3582.01
3453.91
3628.37
3792.11
4198.95
4195.56
4532.58
4079.09
4285.11
4023.51
3987.11
4035.98
3616.2
3874.69
3595.69
3730.59
4174.05
3548.11
3959.91
3626.7
3573.11
3876.6
4651.22
4469.16
4534.89
3860.75
4248.32
3758.28
3709.26
3889.15
4003.44
4162.05
3948.37
4041.74
4335.88
3537.94
3805.64
3483.93
3646.06
4045.94
4774.41
4673.89
4593.2
3634.4
3816.32
3537.21
3681.38
4147.1
3611.28
3773.17
3546.85
3614.21
3883.79
3489.49
4158.78
3634.83
3509.81
3702.31
4260.2
4223.9
4439.32
3539.16
3839.54
3546.3
3625.6
4005.93
3616.95
4001.64
3623.43
3586.42
3848.08
3878.66
4077.85
3820.78
3793.83
4028.34
4450.21
4519.83
4529.88
3252.41
4016.17
3605.69
3600.06
3997.11
3437.68
3675.7
3398.42
3457.28
3882.87
3536.06
3634.53
3322.07
3534.99
3793.41
4136.9
3934.85
4099.13
SCALARS SignedDistance double 1
LOOKUP_TABLE default
246.656
242.67
216.391
202.976
177.928
260.962
271.008
195.353
257.881
259.268
276.679
276.425
314.986
258.641
312.062
306.49
241.557
180.268
190.274
212.908
231.862
307.778
248.76
307.371
210.672
200.532
259.634
263.46
208.134
257.243
229.264
203.566
245.537
199.309
162.329
168.807
214.297
217.559
212.495
249.808
246.856
290.035
277.916
315.359
289.229
264.937
292.117
300.947
287.977
287.871
257.72
284.76
243.172
284.554
306.211
236.842
282.622
286.203
191.95
209.324
199.056
188.719
189.152
184.163
185.954
206.577
229.703
199.138
205.29
268.237
229.028
239.786
267.974
310.409
291.158
322.987
301.743
305.855
274.786
252.282
280.007
285.399
281.431
252.601
228.792
230.203
247.482
234.248
192.396
206.079
183.99
286.433
275.713
290.433
288.61
249.878
264.239
232.263
225.478
262.621
194.65
198.963
263.286
226.133
237.102
196.586
194.739
225.22
198.25
222.539
221.538
256.682
234.364
191.607
205.82
230.136
207.606
255.621
151.104
164.918
181.868
202.253
200.423
153.913
170.74
203.776
203.209
212.737
202.444
195.008
205.718
202
245.097
229.122
244.729
217.719
214.896
260.2
243.398
275.588
262.611
249.477
250.281
293.789
280.332
274.25
283.531
197.773
223.819
222.047
210.976
175.725
229.034
249.758
231.529
271.715
215.497
222.616
194.505
299.074
280.884
266.405
261.332
281.877
267.803
315.434
297.834
295.598
307.086
301.747
313.314
270.272
282.683
288.445
275.027
278.175
260.994
317.32
296.284
312.188
274.824
273.277
259.193
301.079
288.017
300.294
257.52
272.784
273.028
309.265
289.722
305.205
268.82
246.675
304.044
290.101
238.789
265.316
262.073
273.302
285.261
305.45
295.639
295.156
297.284
308.349
240.625
263.743
264.614
263.578
261.386
237.322
303.041
285.51
300.589
300.496
298.846
281.603
224.528
226.633
214.905
216.97
195.739
199.484
184.343
221.02
215.442
176.485
189.498
183.797
211.405
216.892
191.069
186.31
189.65
180.765
184.302
188.978
182.548
184.699
178.174
195.616
182.178
179.685
216.869
236.352
199.968
205.123
226.499
213.597
216.909
196.815
195.497
212.007
203.15
204.212
196.784
198.646
276.651
258.102
256.69
228.361
248.101
247.674
224.914
241.506
226.674
204.799
215.211
213.938
252.539
246.925
247.55
271.469
291.229
294.787
292.014
315.915
302.666
309.668
276.365
257.279
302.712
290.49
320.158
316.567
303.874
309.263
313.818
274.396
306.397
296.523
278.734
257.881
306.534
298.332
291.655
293.526
306.622
256.993
269.124
264.261
265.851
249.449
282.072
293.627
272.175
269.543
255.787
297.439
283.993
299.076
249.905
266.767
264.652
295.238
280.311
297.071
243.98
245.449
243.194
242.659
215.141
228.469
214.479
260.442
254.378
227.102
239.123
227.808
248.991
245.555
196.712
197.778
178.76
199.993
197.666
187.279
197.002
199.433
208.803
230.26
218.93
215.197
290.913
275.364
296.278
294.154
272.414
287.328
284.976
291.304
299.257
277.029
287.201
276.179
300.514
298.385
232.269
238.126
222.361
273.865
257.296
260.82
245.406
247.972
258.508
289.693
278.713
283.557
249.154
268.51
216.032
230.169
258.412
243.279
240.539
197.445
196.218
202.368
195.845
195.647
196.707
202.089
266.504
248.473
254.203
240.839
243.731
259.473
220.975
230.351
215.348
208.413
208.927
223.054
191.426
195.194
189.914
190.025
197.428
195.599
202.823
231.944
212.983
209.904
208.939
224.104
196.186
190.013
238.948
239.046
254.836
215.342
226.545
212.153
241.782
236.911
221.262
196.248
205.194
206.207
217.015
224.359
215.047
218.255
219.37
245.035
178.417
196.755
173.552
243.54
241.723
254.634
201.845
218.96
215.582
251.957
233.109
224.316
164.803
159.841
179.578
157.723
153.57
151.938
189.153
168.341
181.289
196.59
183.747
173.702
210.687
198.606
175.695
200.063
207.094
212.54
222.419
161.696
162.514
162.167
157.34
157.058
160.578
160.652
207.68
216.327
224.834
218.292
213.761
206.9
189.257
203.608
180.083
180.436
176.946
210.745
192.66
194.795
208.205
200.542
201.343
195.071
204.06
207.536
200.366
206.309
200.327
209.404
200.001
206.155
264.794
254.13
262.379
220.92
238.43
227.533
229.211
235.28
220.517
210.681
212.243
216.109
201.288
205.976
211.694
204
229.362
213.767
229.848
265.47
262.087
262.287
260.987
254.384
241.578
226.362
273.458
270.547
252.34
252.969
269.556
260.195
248.231
268.557
264.222
228.996
249.819
238.558
220.748
245.389
231.746
240.303
257.167
276.162
283.595
283.096
282.579
289.76
276.199
258.56
271.34
271.473
265.347
268.237
287.467
279.037
278.429
257.204
277.763
268.463
195.296
202.237
196.217
191.45
193.864
240.787
235.103
237.402
225.703
212.811
241.59
209.936
225.257
236.606
234.62
208.672
221.146
206.82
235.688
186.091
208.435
232.86
236.61
164.166
192.425
175.584
161.136
166.973
259.089
245.755
253.36
236.575
218.338
187.346
198.89
214.482
261.686
232.773
244.965
264.197
267.175
216.494
244.685
229.938
217.017
221.905
285.593
272.969
280.199
281.752
263.807
239.123
250.192
257.829
233.899
231.671
231.377
216.883
204.788
246.934
213.735
228.743
240.18
235.143
194.46
195.797
193.103
192.159
198.772
216.702
205.635
201.764
283.531
293.42
291.835
297.589
304.933
275.865
255.568
268.263
293.806
297.955
249.09
287.826
268.862
244.445
244.838
298.845
273.027
292.273
