# vtk DataFile Version 4.2
vtk output
ASCII
DATASET POLYDATA
POINTS 642 double
-129.277 248.759 -5.91397
127.268 258.785 -9.39144
-124.433 -218.248 41.2255
141.387 -226.09 41.6447
1.33268 -175.965 311.593
3.33198 102.761 274.528
3.16271 -73.9063 -111.034
2.63193 197.28 -191.474
172.005 62.7424 -117.437
170.779 1.86669 207.913
-146.503 61.0632 -116.365
-147.37 6.47281 206.668
-158.166 158.179 54.8623
-94.3512 63.4513 266.619
-34.5409 152.279 121.355
45.1401 153.745 127.423
1.11426 297.194 -25.5787
88.2392 298.431 -101.293
-75.1305 291.652 -98.279
-117.041 118.605 -188.352
-189.779 193.577 -40.0743
-156.391 23.0932 33.942
105.417 67.7389 272.905
133.785 130.041 61.9449
-119.719 -99.3528 289.738
7.02938 -1.25762 351.657
-155.341 -131.932 -11.2656
-143.158 -139.712 190.879
4.81356 61.018 -231.185
-95.4408 4.85761 -168.907
186.685 192.528 -51.0542
128.352 121.011 -191.843
167.528 -141.748 196.19
135.821 -100.388 293.67
98.7745 -240.738 241.352
-89.5394 -236.99 240.21
0.223495 -241.658 39.4287
-82.7107 -209.065 -58.9568
95.8132 -211.181 -60.5712
106.409 2.19875 -171.553
171.508 -142.581 -13.8024
176.89 4.79259 57.8618
-154.384 205.614 14.5093
-112.342 138.411 70.2416
-106.771 234.069 15.9729
-128.799 35.0384 240.895
-114.396 72.8008 209.19
-133.218 50.4953 180.385
-20.0436 122.482 231.48
-68.6611 100.716 233.031
-47.0701 87.4811 278.487
-30.9183 258.68 20.4166
-55.1856 292.246 -20.1216
31.1667 125.34 230.787
5.99965 152.082 132.996
69.8871 296.568 -20.636
43.0589 258.81 20.9482
102.213 239.214 13.3494
-45.7373 320.109 -55.5898
-99.5269 280.794 -50.1433
107.138 297.868 -55.748
56.5538 321.187 -55.8346
-41.3568 251.405 -155.615
2.07253 299.395 -104.206
49.1853 253.239 -157.455
-155.395 236.016 -72.64
-170.814 224.334 -26.0813
-68.5775 157.776 -200.928
-104.399 210.703 -142.686
-172.635 169.275 -63.63
-163.538 175.252 -100.052
-143.963 84.7956 -149.612
-183.467 188.845 -7.53031
-143.138 82.161 -20.6053
-189.707 172.114 -31.8595
-141.737 164.375 44.4586
-149.887 1.58322 140.376
98.2553 146.974 89.6518
152.874 216.727 7.59782
58.9572 88.7649 281.67
78.1862 105.083 237.3
157.07 42.7528 184.076
125.932 74.2726 218.355
143.473 36.1345 246.416
-49.0141 39.7723 316.092
4.61288 59.8006 318.4
-137.847 -50.5406 250.95
-109.289 6.50385 287.235
3.64084 -50.8967 345.052
-54.0473 -33.6756 329.443
-76.0997 -143.615 316.202
-160.716 -52.3057 98.892
-146.548 -73.2921 209.518
-136.693 -52.6675 -52.3549
-160.969 -72.5971 15.6761
-139.934 -147.571 117.044
-158.51 -137.42 31.8791
-147.403 -180.687 8.33867
-117.503 56.562 -190.136
-134.366 32.7248 -140.472
3.86539 108.403 -233.627
-69.6408 89.3987 -225.333
-70.5857 -40.1243 -150.94
-64.1232 24.2538 -209.627
2.3447 5.50798 -205.113
113.086 217.197 -149.413
75.5118 160.796 -202.269
172.815 230.824 -27.0942
160.446 244.843 -78.6557
165.9 82.4334 -154.173
170.997 172.555 -109.427
174.081 136.594 -74.5718
157.401 -157.089 115.38
154.98 -195.605 215.189
117.388 -227.456 177.866
157.985 -50.6237 255.699
169.324 -129.162 245.032
171.173 -78.0306 209.228
62.937 -218.292 301.379
126.315 -184.307 289.439
84.281 -148.556 316.76
59.8828 -248.209 191.956
92.8588 -246.577 41.3921
-56.2338 -216.59 298.891
1.634 -241.33 241.886
-80.3596 -245.171 42.1502
-54.4028 -246.98 189.581
-103.777 -225.649 173.154
65.2058 -245.109 -16.3877
126.08 -233.651 -16.4167
-111.483 -227.328 -14.0782
-58.7569 -245.002 -16.0687
62.246 -169.123 -85.9712
0.702948 -206.238 -58.6833
-54.5264 -167.987 -86.6534
148.923 -186.68 -42.5769
168.726 -191.336 5.92767
75.3471 -40.3657 -151.75
102.096 -155.683 -85.5757
158.397 -43.2866 -54.2271
145.175 -107.539 -60.3027
153.562 33.178 -143.352
175.391 -143.669 32.5971
157.226 60.0679 -45.714
177.294 -84.6931 18.8219
176.707 -55.3728 103.046
173.287 6.59551 152.968
60.2364 -27.6863 339.139
120.715 5.4253 294.255
58.316 38.9915 322.224
-135.248 -186.871 215.811
-116.336 -179.5 283.691
-144.68 -131.57 241.461
-90.1863 -150.141 -84.9285
-130.892 -179.264 -38.3361
-132.547 -99.8038 -57.4753
131.918 56.8361 -193.496
70.286 23.0085 -211.479
72.488 89.2159 -228.881
176.359 81.4457 42.5717
182.606 164.959 -30.1233
176.931 194.818 -17.0149
-143.293 227.975 4.78038
-131.986 222.135 16.4821
-118.021 242.089 7.44676
-149.992 137.737 60.9058
-143.759 199.558 23.1093
-160.287 182.09 20.662
-77.6849 216.805 32.3766
-120.242 213.725 26.3586
-75.0248 146.069 96.0522
-140.171 20.7754 223.603
-134.693 39.9274 213.306
-142.283 24.7907 198.803
-107.744 68.3265 239.856
-122.414 55.7084 227.948
-113.816 49.2413 255.3
-135.669 113.201 122.985
-125.102 62.7856 194.172
-126.448 89.1771 142.392
-8.64609 114.124 253.416
-33.7812 106.055 256.49
-18.7591 96.0037 278.044
-54.1877 116.717 210.318
-44.8425 112.578 233.906
-29.5102 127.68 210.318
-71.3831 76.5975 274.563
-59.9102 95.6464 256.262
-81.8259 84.6538 251.779
-100.335 97.8714 166.348
-94.5962 87.5434 221.928
-83.4623 104.308 192.586
-79.2865 258.995 -1.60192
-90.9193 269.08 -16.4687
-33.5951 227.185 46.5751
-59.67 247.764 15.851
-38.1125 299.233 -21.3067
-44.2914 278.867 -3.34657
-25.0486 281.189 -0.680476
16.9673 115.012 253.246
4.60511 125.544 232.824
30.6864 151.743 133.794
18.259 133.541 212.184
41.6851 131.925 209.361
-6.49182 132.818 212.887
-14.8275 152.914 130.469
92.6389 281.787 -17.9324
82.8744 270.699 -3.91697
116.508 251.377 1.49829
32.4356 280.091 -1.9955
59.7139 281.466 -3.89719
49.4612 301.065 -22.648
74.0388 216.895 43.0393
65.4601 255.022 15.7197
42.6109 226.704 50.2381
-9.42321 226.345 57.9706
17.3931 225.218 59.8256
1.22056 257.449 27.8962
-75.0205 293.521 -38.4891
-120.177 266.284 -28.0953
-27.5239 313.618 -42.5175
-49.6736 310.452 -42.7325
-87.8772 294.624 -71.7858
-65.78 310.702 -56.9824
-61.7247 315.599 -72.5948
115.286 279.179 -37.6909
87.3852 303.49 -41.0842
75.0521 320.051 -74.0902
82.6478 315.778 -56.946
101.44 305.456 -73.2473
64.1843 312.657 -42.3776
34.5993 313.304 -43.5256
-20.2509 227.402 -177.14
2.39028 254.039 -161.285
25.8913 228.487 -178.353
-45.9065 302.673 -106.394
-24.437 278.634 -132.166
-58.7874 274.891 -125.847
70.5999 278.693 -127.593
30.3338 278.414 -132.267
55.181 304.048 -106.404
2.55604 317.023 -55.5107
33.5295 320.793 -76.3468
-27.1065 321.165 -76.3949
-147.051 252.411 -33.6385
-152.032 239.062 -17.616
-115.769 264.445 -84.8337
-132.543 261.616 -57.8846
-187.971 205.62 -33.0136
-167.516 232.969 -43.1484
-181.476 209.845 -55.6552
-36.1895 179.13 -196.748
-53.569 211.062 -179.3
-110.02 164.104 -166.429
-83.1099 186.937 -175.906
-95.5271 136.813 -198.93
-71.0559 235.212 -153.872
-88.704 251.372 -120.691
-151.265 102.185 -94.8884
-152.737 119.537 -105.912
-147.569 71.7709 -131.542
-179.039 187.738 -69.8479
-169.615 175.284 -81.4513
-190.559 193.29 -48.5435
-132.245 101.355 -170.65
-147.689 133.112 -122.762
-135.835 142.911 -143.694
-136.567 228.699 -107.23
-143.205 190.398 -123.144
-167.54 203.61 -89.8313
-163.549 217.309 -5.62568
-188.422 195.702 -30.3711
-182.828 201.104 -17.0393
-171.108 193.638 5.93846
-175.681 177.73 16.1358
-147.643 68.4409 -92.4646
-161.801 139.863 -48.7604
-184.082 129.777 -13.2328
-185.146 140.975 -20.0694
-167.897 58.445 17.0738
-189.742 174.485 -33.239
-187.579 184.394 -33.5888
-142.322 27.9771 172.234
-147.785 6.98202 188.691
-160.987 161.509 45.5065
-131.692 80.727 111.108
-157.117 0.625017 83.8448
-145.393 41.6155 106.411
-160.292 71.3822 13.7049
-192.323 198.055 -29.0824
-179.861 170.3 -32.674
-181.036 185.218 -1.06439
134.154 228.619 13.7553
145.913 233.913 3.02629
70.3862 151.577 111.76
114.306 213.099 28.3364
152.719 200.843 11.0286
138.77 210.025 19.296
119.132 140.89 70.7581
28.083 96.2425 278.88
45.0801 107.788 257.419
92.4443 87.9223 257.637
71.382 98.1327 259.859
82.6058 79.6697 279.707
56.0017 116.796 234.499
62.2339 123.181 212.404
166.301 22.3193 196.628
152.764 38.9367 215.719
159.546 17.0599 226.996
129.746 83.8701 173.213
142.547 60.3641 201.172
141.331 72.3182 154.708
125.913 53.6018 261.799
135.045 57.4378 234.897
118.668 71.5592 247.541
89.5466 110.811 203.84
103.934 91.3312 230.096
112.348 97.7254 188.663
-19.9406 76.3791 299.681
3.49107 84.9057 297.051
-75.3609 55.3344 291.702
-50.2578 66.3651 298.341
5.98828 28.7331 337.724
-20.3698 48.6794 320.987
-18.4007 19.2127 338.283
-144.609 -19.0029 229.715
-135.421 5.05348 246.633
-113.522 -44.9202 287.302
-126.343 -20.1293 268.644
-132.606 -75.9363 270.75
-121.031 23.7455 264.997
-104.427 37.5003 278.184
-1.49239 -119.473 316.229
-42.4203 -104.389 320.513
-49.0455 -160.395 317.871
-15.6858 -10.2359 349.205
-23.0049 -40.4548 342.082
6.97169 -17.5395 357.668
-99.7041 -123.131 305.516
-71.2028 -88.9402 319.725
-92.401 -71.3516 310.12
-81.6767 24.3979 304.5
-86.2609 -15.0965 310.922
-48.648 6.51311 329.83
-148.677 -21.3854 175.873
-147.734 -29.8467 206.783
-162.776 -22.2744 74.1452
-159.135 -23.4352 114.873
-145.485 -115.317 201.75
-147.83 -63.6093 162.257
-147.118 -96.6565 149.115
-138.059 26.3384 -103.167
-139.994 -0.89164 -50.4089
-159.955 -106.766 2.19643
-157.115 -75.946 -5.08731
-151.972 -106.577 -21.535
-156.21 -25.0375 15.8415
-162.075 -24.226 36.88
-128.949 -200.98 68.3375
-146.239 -180.536 36.6933
-138.959 -202.073 21.5904
-139.762 -153.95 107.623
-148.627 -156.83 59.3143
-135.859 -154.171 168.145
-155.179 -156.143 -2.62107
-157.047 -157.142 21.8037
-159.864 -135.682 11.5963
-161.886 -60.7409 44.3733
-160.899 -108.683 20.6601
-157.826 -95.7855 60.2585
-141.479 57.5569 -148.984
-140.821 45.3171 -129.051
-119.421 85.4806 -192.288
-132.017 70.7022 -173.121
-121.366 23.7379 -156.704
-127.508 44.8211 -167.513
-110.573 32.2682 -181.484
2.6086 147.816 -215.521
-38.1462 133.805 -221.109
-34.2791 74.2571 -231.775
-35.8713 99.0264 -232.42
5.48194 84.0196 -238.674
-72.5352 119.107 -220.456
-96.7195 105.464 -212.085
-55.0042 -49.4977 -134.604
-33.7347 -7.76243 -190.748
2.98812 -11.867 -186.143
-82.9259 13.6442 -190.824
-60.2706 1.48268 -191.466
-72.0432 -18.164 -164.653
2.66514 27.9243 -220.363
-34.7787 13.2939 -210.233
-36.1079 37.7026 -223.146
-98.2337 71.5123 -212.001
-69.1092 54.7011 -222.547
-93.3488 40.7281 -204.635
[...]
POINT_DATA 642
SCALARS Mean_Curvature double 1
LOOKUP_TABLE default
0.0212447
0.0254962
0.0178668
0.0179114
-0.00860406
0.0181021
-0.0110096
0.00156174
0.0323203
0.0197365
0.0092275
0.0223981
0.00741368
0.0129114
-6.53796e-05
0.00572977
-0.00651521
0.0201561
0.0140961
0.014261
0.0192165
-0.0406609
0.0153058
0.000882806
0.0108242
0.0142668
0.0109551
0.00845974
0.00119963
0.00677181
0.0113635
0.0115565
0.00991832
0.0118836
0.0140863
0.0174542
-0.00267647
0.0190725
0.0182921
0.00691821
0.00881474
-0.00181018
0.0233397
-0.0148917
0.00657287
0.0132506
0.0116437
0.00202676
0.0102729
0.00611979
0.0138132
0.00885176
0.0142227
0.012038
-0.00462184
0.0198766
0.00845538
-0.00414585
0.0419798
-0.00176921
0.027955
0.0349997
0.0107331
-0.00193384
0.0108502
0.0135569
0.0181828
0.00836886
0.00172415
0.00125663
0.0213603
0.014275
0.0053316
-0.0178637
0.291234
-0.0320227
-0.0010382
-0.000364287
0.025169
0.0138788
0.00664757
0.0074812
0.00478625
0.0114112
0.0101326
0.014556
0.00229825
0.0132573
0.00762713
0.00457978
0.0135209
0.00566453
-0.000142764
-0.00298596
0.00946348
-0.0419957
0.00727457
0.00976506
0.0195425
0.0207
0.00832438
0.0129086
-0.0392483
0.0149633
0.00911211
0.00587577
0.00562574
0.0285444
0.0195061
0.0215914
0.0114365
-0.0181941
-0.0422193
0.024118
0.0107384
0.00450045
0.019536
0.00245416
0.0206676
0.0158456
0.00987762
0.00669345
0.00946021
0.020052
-0.0104403
0.0137314
0.00592943
0.0166154
0.0150941
0.0216773
0.0209978
0.0170311
0.0110432
-0.00639616
0.0120615
0.0186968
0.0271381
-0.00843528
0.0121046
0.00342936
0.0217279
0.0167515
0.00176232
-0.0125922
-0.00653048
-0.000317315
0.0100939
0.00825297
0.00851143
0.0102029
0.012902
0.0174158
0.0136516
0.00724372
0.0126107
0.0337466
0.0174637
0.013918
0.01085
-0.045812
0.000256082
0.00167381
0.0149439
0.0150647
0.0197437
-0.047138
0.00506939
-0.0290839
-0.00621589
0.00862176
-0.00283167
0.0139233
0.0118625
0.00791733
0.0137403
0.0141208
0.013442
0.0918267
0.0211594
-0.0836315
0.0110023
0.00961709
0.00813022
0.00512883
0.00805479
0.00853454
0.0129909
0.0119988
0.0124693
-0.00358064
0.00887218
0.00820429
-0.00223694
0.0029538
0.00114299
-0.00134938
0.0193825
0.00650034
0.00842575
0.00941045
0.010409
-0.000486528
0.00775265
0.0150447
0.0121399
0.00447927
0.0116424
0.00139233
0.0091327
5.07718e-05
0.0126806
0.0142289
-0.00292371
0.000932115
0.00409564
0.0110861
0.00887219
0.00771167
0.011223
0.0219615
0.0192099
0.0135724
0.0232938
0.0268986
0.0337972
-0.0054347
0.0136021
0.0325737
0.0370739
0.0316942
0.013923
0.0107439
0.00909693
0.0108957
0.00986833
0.0205016
0.00605007
0.0102427
0.0119726
0.00218315
0.0144866
0.00887776
0.0225334
0.0266175
0.0293939
0.0114469
0.00857763
0.0171691
0.0528502
0.0216904
0.0235638
0.00140936
0.0132137
0.00423587
0.00612818
0.0121786
0.0109974
-0.00171257
-0.00138801
0.00745311
0.0155237
0.0321667
-0.00164697
0.102673
0.00987938
0.00352229
0.00441208
0.0123081
0.0103703
0.0204068
0.0115788
-0.155657
0.0213662
0.0124552
-0.220694
0.00393451
-0.0139057
-0.13157
0.0824636
0.0750363
0.0139772
-0.179516
0.00262097
0.0101989
-0.105167
-0.0184351
0.00350484
0.00285657
-0.0186011
0.138972
-0.0441039
0.078804
0.022053
0.0209084
0.00058175
0.00114805
0.00522549
0.0142776
-0.00171109
0.00576353
0.00799339
0.0126779
0.0122891
0.0154987
0.0105169
0.00692064
0.0156774
0.00823717
0.00946715
0.00591802
0.00740043
-0.000698582
0.0161516
0.0101172
0.0136746
0.00631011
0.0081385
0.00596948
0.00838353
0.0181043
0.0126014
0.0130592
0.0121147
0.00864219
0.0127356
0.0123886
0.0112036
0.00272873
0.00924834
0.0138212
0.0138409
0.013704
-0.00547878
-0.000679953
0.0060818
0.0194325
0.00828971
0.039774
0.00918855
0.0108187
0.0097514
0.0109857
0.00946122
0.0105954
0.000511236
0.00472157
0.00952004
0.00928848
0.00156558
-0.002766
-0.000241751
0.00617355
-0.00208071
0.0144363
0.00701339
0.00434108
-0.0048349
0.0230511
0.00620891
0.00820482
0.0169704
-0.0231184
0.0535276
0.019171
0.0198027
0.0191879
0.0159421
0.0036495
0.00646583
0.000688976
0.0224341
0.00722477
0.0147025
0.0154131
0.00777677
0.0135427
0.0133142
0.00164171
0.00855393
0.00884588
0.0141843
0.0240166
0.017614
0.0200157
-0.0123762
0.00967685
0.000989715
0.0136319
0.0124626
0.0452569
0.0100921
0.0149492
0.0121402
0.0193379
0.0176178
0.0180748
0.00980133
0.00187504
0.000586349
0.0101455
0.0117164
0.0100529
0.00536088
0.0157599
0.0247269
0.0244067
0.0120104
0.0302113
0.0109916
0.00625113
0.0268605
0.0142969
0.0352284
0.000819039
0.00586688
0.0109155
0.0187311
0.0135432
0.0194427
0.0116643
0.0195834
0.00504791
0.00904645
-0.000170589
0.0063302
0.0176439
0.00860737
0.0113548
0.017575
0.0133108
0.0220288
0.0151253
0.0095627
0.00850236
0.0147497
0.0169585
0.00496117
0.00111195
0.00553066
0.00792853
0.0244575
0.0231016
0.00420349
0.0172238
0.0210445
0.0207696
0.00706723
0.0148102
0.0122269
0.020455
0.0192786
0.0130903
0.0188383
0.0158026
0.0181763
0.010689
0.00723137
-0.000452355
-0.0119971
0.0288405
-0.00759671
0.0138792
0.0190348
0.0202436
0.0155342
0.0127351
0.0132058
0.0186912
0.00651669
-0.00559803
0.0045142
0.00862188
0.0136067
0.0146626
0.020651
0.0322124
0.0348979
-0.0111736
0.0215001
0.018334
0.0123403
0.00534184
0.0207282
0.0227656
0.0134686
0.0182048
0.0210303
0.0195015
0.0238937
0.0190844
0.0134609
0.0106715
-0.00309934
-0.0103878
0.00100029
0.0114046
0.0137203
0.0066555
0.0137042
0.016542
0.0122447
0.000325054
0.0170192
0.0136806
0.0220205
0.0200781
0.0168466
0.0187258
0.00956491
0.0253362
0.0146531
-0.0105197
-0.0734245
-0.0176291
0.11127
0.038268
0.0236734
0.0204157
0.0123845
-0.0548433
0.0190581
0.0114437
-0.0257999
0.00559806
0.00631444
0.0574173
-0.012903
0.0178313
0.00547436
0.0130364
0.0180718
0.0202634
-0.000871756
0.036072
-0.0113139
0.00331501
0.000594983
0.00307683
0.00141094
0.0081903
0.00676755
0.0150853
0.000684401
0.0164383
0.00259576
-3.61572e-05
0.0007033
-0.00140807
0.0244877
0.0268236
0.00279642
-0.000402214
-0.00287416
0.00574709
0.00415668
0.0152604
0.0254004
0.0085649
0.0136081
0.0107731
0.0100655
0.0096076
0.00535147
0.0135715
0.00806321
0.013947
0.0137158
0.0108073
0.00915628
0.0156664
-0.00321589
0.0126372
0.0156536
0.0137046
0.0180087
0.0213745
0.0106432
0.0176449
0.0171633
0.0204592
0.013231
0.00350692
0.0016275
0.0161388
0.0129628
0.0191644
0.021603
0.0179413
-0.0770357
0.0151893
0.0291934
0.133639
-0.023334
0.0229334
0.0140676
0.0137959
0.0185448
0.0149324
-0.0757805
-0.0189937
0.113821
-0.0352537
0.0143926
0.0148463
0.0148244
0.0062736
0.0138779
0.013199
0.0124065
0.0206659
0.0168375
0.00878907
0.00994529
0.0134109
0.0104807
0.0134094
0.00764455
0.017732
0.0125065
0.0189288
0.0170026
0.0163109
0.012883
0.0177999
0.00695835
-0.00593559
0.00733984
0.00232072
-0.00469838
0.00253234
0.0343742
0.0283589
-0.00393414
-0.0268729
0.0272245
0.00353638
0.0171175
0.0315619
0.0264063
0.124338
0.0495273
-0.0455086
SCALARS CoVolArea double 1
LOOKUP_TABLE default
629.499
702.403
930.375
998.1
1651.04
561.116
4323.41
1559.34
337.078
610.961
623.863
525.75
619.109
753.581
3418.95
2266.12
1318.03
1253.39
1317.57
1263.23
229.836
1264.19
761.033
2253.16
1396.97
646.902
666.042
1481.47
1225.15
2369.99
505.64
1417.75
1466.2
1573.42
1365.85
1202.55
3447.32
796.709
866.946
2434.12
839.665
1977.11
464.873
3243.99
862.119
645.176
1048.66
1406.94
610.554
828.114
782.183
1084.82
762.467
654.72
2227.77
606.482
1207.61
1098.01
589.384
918.502
700.892
690.826
1419.64
1880.39
1535.42
1328.21
542.29
1490.92
1979.73
1203.82
1029.43
1024.21
180.279
4488.73
161.637
4383.72
1672.92
2903.59
332.749
827.358
766.19
922.779
911.43
814.759
1111.62
905.851
1124.02
1222.96
2156.58
1702.89
1309.07
2250.53
1373.35
2015.57
950.478
2438.41
1318.02
676.658
748.803
720.172
1408.68
1044.37
961.823
883.851
1026.64
1902.16
1601.39
660.792
1282.21
896.309
1386.82
902.407
2337.26
911.7
1452.14
1340.35
830.263
1152.38
1428.62
1394.8
1538.61
2171.72
1622.86
1410.36
1947.5
1404.18
1870
1342.3
1288.61
822.316
755.037
1128.53
1447.2
1578.8
1184.38
815.235
601.734
1042.97
1285.87
1942.77
1546.68
902.193
1673.87
3507.06
1007.2
2674.75
1173.95
1575.93
1306.04
1095.01
889.432
1217.48
706.349
1319.95
852.028
1187.5
836.492
1006.81
1080.59
2119.96
1019.66
396.963
545.21
441.85
638.801
2106.47
1278
630.66
2925.59
2033.38
4189.67
648.189
623.424
534.961
715.6
620.381
634.965
1612.76
965.467
1482
645.779
718.504
722.98
2211.12
672.912
1363.13
704.935
664.055
733.124
2174.72
1006.02
2290.28
954.741
960.958
2312
1266.97
697.045
779.643
1197.36
708.26
584.448
2017.04
1259.64
1121.56
1236.51
2117.98
812.921
793.539
698.075
1389.23
725.812
859.545
2462.72
1156.82
1951.11
1910.94
2096.3
1552.76
860.901
884.294
827.392
518.333
1012.18
586.37
836.597
912.528
667.798
918.879
500.442
839.743
543.811
908.35
1513.61
1632.32
1567.52
1356.37
1644.56
1321.94
1375.43
1762.1
1503.63
969.864
1472.09
1371.03
758.546
633.96
1636.04
1128.32
388.262
818.13
800.677
1786.87
1490.25
1862.65
1622.37
1252.02
1567.26
1839.51
1287.62
1233.56
758.545
480.001
764.501
329.581
1121.14
1284.97
1655.14
1859.22
1823.05
1181.32
589.072
126.391
402.037
441.297
250.493
2703.13
2256.09
536.292
1298.13
1861.09
604.272
87.7177
1548.62
834.036
1115.42
2719.39
2129.92
4174.79
4421.6
256.12
2168.84
684.79
552.079
524.592
3143.74
1993.06
1004.93
1258.55
2392.4
821.157
790.459
703.193
657.116
690.091
654.035
1648.41
588.589
758.54
811.183
1867.29
932.896
1964.45
714.231
700.223
708.513
2180.62
946.354
2137.57
876.948
761.617
947.475
903.009
880.074
976.285
967.249
984.196
970.291
1563.23
1199.75
1160.76
828.853
877.678
2984.43
2192.7
1677.36
971.467
1545.54
700.313
1284.96
1755.11
1745.68
1301.23
1755.15
1424.97
1647.77
963.271
1440.39
1640.86
1335.78
2189.21
3193.52
1445.08
3991.72
661.532
1866.25
1151.09
3059.95
1385.7
2112.98
1294.48
817.692
2623.87
907.248
877.573
614.491
682.793
546.806
1533.84
967.41
2986.31
595.124
585.319
862.913
709.741
1370.02
628.031
772.241
2005.57
1642.77
1161.57
1142.07
930.288
1150.75
975.877
3118.45
1438.48
3033.5
854.724
904.008
962.603
1161.69
942.582
1193.97
996.407
1121.1
910.22
1585.3
1856.16
1717.3
1549.65
1359.56
1594.69
1862.74
771.788
897.14
826.476
918.065
545.862
1023.52
1516.48
520.091
1127.26
519.15
1870.15
1453.31
1187.55
608.496
1201.3
788.191
1896.55
1318
1977.04
2106.77
2321.34
1621.97
756.005
1397.03
1249.13
1027.45
980.865
1234.7
1097.35
1098.85
942.023
1152.66
982.205
1264.72
1084.18
755.713
664.833
1393.61
1077
1894.7
1484.49
1215.47
1353.68
1549.11
1138.71
1336.85
1040.57
1379.2
1516.82
1912.42
1292.31
1116.06
1531.15
2518.11
2614.51
4798.35
1389.48
1855.85
1458.49
1836.39
1263.37
1880.5
1574.37
1297.41
1766.49
1508.82
4314.5
2045.2
2078.45
1029.77
1341.48
1023.53
1423.31
1377.31
3206.22
885.512
851.573
1690.76
1067.67
794.696
844.67
1033.37
771.407
823.25
897.502
750.344
746.387
904.943
1597
3140.4
1958.79
2982.63
1232.51
1423.47
861.874
743.521
1313.17
1077.36
1777.18
1613.12
1719.82
782.476
869.595
880.796
821.215
632.612
663.883
736.681
3094.79
1366.57
3557.36
892.87
1082.64
792.404
785.621
927.534
931.769
609.972
1068.09
1346.52
1534.88
1730.48
1563.67
4280.25
927.768
2588.57
932.621
1107.42
727.188
774.658
1266.47
2990.82
1446.96
2858
1520.32
2894.18
3441.94
1874.03
728.837
1464.97
646.099
3142.89
2143.76
1575.92
1941.27
1361.62
927.885
1467.54
3156.15
2605.03
2033.54
2062.87
1531.42
758.618
1126.58
1020.52
990.229
1289.21
1679.55
951.459
894.665
981.871
921.238
994.858
1750.1
1336.63
1235.99
2247.07
1129.66
1054.22
1382.82
735.458
1103.02
1181.14
1103.01
1220.16
1289.21
965.66
648.054
788.658
901.064
1073.49
1190.04
1057.83
792.115
1154.73
815.602
721.04
770.738
3532.1
711.583
780.159
706.924
753.365
866.944
867.379
3859.03
1056.85
966.858
829.191
989.22
927.425
2585.65
654.037
867.059
731.053
724.961
973.846
1422.69
1191.57
1007.31
982.715
941.322
1681.25
1163.93
1264.72
1057.85
1022.35
1071.83
1206.4
1146
808.22
1848.42
1779.26
2312.85
3159.89
1406.35
335.714
687.959
2918.04
3108.8
439.423
1381.21
324.252
358.47
367.06
880.613
313.173
1354.19
SCALARS SignedDistance double 1
LOOKUP_TABLE default
55.3631
56.463
44.3114
40.3057
44.229
54.2115
60.1441
39.9895
60.7306
53.1501
61.3243
59.5471
117.481
52.2099
65.883
66.7517
54.9429
32.0874
37.6763
43.0796
66.6289
67.1745
50.2145
75.0318
42.1033
41.1554
54.9592
58.5281
43.2473
54.4913
54.9873
39.6656
54.6549
40.3939
33.9339
36.1685
51.276
43.5195
44.7314
54.0202
50.3529
59.2849
72.0926
84.3287
66.0062
55.0677
61.8014
64.0173
57.9202
59.9151
52.3802
60.3501
56.0994
57.6025
67.6672
54.3334
59.4511
62.6646
46.934
52.2295
47.604
47.0599
36.271
40.5859
34.7164
38.9688
52.5675
39.2926
43.3056
60.5728
59.2194
54.5359
78.7233
79.0039
78.6011
98.7609
60.7556
67.141
63.3772
51.5961
56.6392
59.1855
57.7608
53.2195
44.9314
46.3158
51.8492
46.2316
41.2568
43.0808
37.844
57.4003
57.3905
63.8412
59.0605
66.6759
57.2928
49.282
46.9366
61.5042
37.9337
40.5648
80.2384
47.2187
50.1014
38.5606
39.1132
51.34
38.485
48.7809
55.7616
65.9381
65.7583
49.5759
55.1707
47.1772
51.6378
53.6313
29.1856
33.0381
38.4358
48.9142
40.3554
28.0591
45.7545
39.7124
49.3255
59.2387
38.7558
35.105
38.2615
38.6546
57.8174
57.7856
58.0404
45.0759
50.9213
77.7425
56.8542
61.3979
54.2275
56.721
52.8721
69.8726
59.8066
56.3139
57.2157
40.1178
44.6323
44.6769
50.0576
35.2273
55.4255
56.0846
46.9851
60.8838
43.8273
46.256
39.8053
79.7171
64.9073
60.1133
59.8725
65.5181
60.8702
109.623
76.7084
85.7775
67.882
73.8243
68.6434
57.4597
60.2561
61.0775
56.9606
58.5905
53.0002
92.4925
63.9314
74.7248
55.6631
56.6196
53.1187
61.5362
58.7366
60.5842
52.3549
56.7193
56.4397
67.5799
61.1338
66.0102
61.7054
58.8477
63.422
63.2279
54.4194
59.2559
57.976
56.0147
58.5228
67.6964
63.5213
61.8263
62.7452
67.3375
57.771
60.1166
60.6356
56.6372
58.4683
54.0361
63.9248
60.6772
62.7978
63.8929
64.1226
57.0262
52.9974
49.5835
48.4588
47.734
45.7873
46.3777
40.3302
52.6641
48.5759
37.9533
44.9234
39.6758
47.8444
53.4997
38.0259
34.7855
37.4667
33.5088
37.5179
38.6605
37.6646
38.1493
34.635
54.7805
46.5404
39.1376
46.8658
51.1891
40.5921
41.1797
63.001
45.2656
50.4522
40.2483
38.1439
43.9326
39.2826
39.425
37.7981
41.4279
62.253
64.8423
58.8569
58.9014
57.7996
64.198
47.4967
64.1902
56.5343
37.6203
52.0619
49.2053
59.1522
67.1268
68.2059
77.7109
91.8846
65.3484
70.1594
102.549
96.0805
89.2321
76.6704
69.7612
62.3186
60.1599
112.661
68.7013
63.213
62.0572
87.6328
69.919
69.7591
82.9208
61.9279
57.8966
64.3121
68.5542
65.7921
67.6798
72.3523
52.4672
54.8645
54.6834
55.1739
50.313
56.3342
58.191
56.6894
55.3979
52.6602
62.586
57.7799
61.7582
51.1441
55.8792
54.6632
60.2249
57.7111
61.9723
49.9347
50.098
48.3034
47.8933
43.9924
46.4537
42.9498
55.2773
53.3116
46.4357
49.2151
49.1757
50.7666
49.0225
42.2936
42.1671
39.6086
41.2859
41.0855
40.2413
38.8002
41.4181
42.6198
45.2782
43.2341
43.9369
59.5773
58.6073
60.6361
60.9783
56.2936
58.6029
57.9492
71.1897
70.5911
56.6033
59.3435
55.8986
62.9967
62.8978
52.103
51.39
47.8661
68.8404
57.8623
63.2112
51.678
53.5394
56.5247
58.6298
57.6124
55.8465
57.5364
61.7114
44.5037
48.8724
55.2985
51.9521
49.392
39.1446
38.1052
42.7188
39.8252
41.1522
37.2959
39.0609
79.6257
55.494
55.7161
50.7261
54.0025
64.5549
44.8273
47.6372
42.4055
40.5262
41.462
45.0802
37.5499
40.1492
40.0526
35.9708
37.6525
37.2375
40.4527
50.0999
44.3712
49.9998
41.9755
55.1277
46.3
41.0774
55.524
56.5973
59.7863
48.4549
55.1471
42.1123
58.8726
61.2426
52.5716
36.133
44.8411
47.6567
47.9544
68.8833
67.6031
52.0141
52.8738
59.1255
42.0105
48.7943
40.581
50.5877
51.9093
54.83
42.4601
49.0549
45.052
52.7785
52.494
52.1359
40.5286
38.174
39.456
29.4875
28.251
29.2539
37.8992
36.107
36.3703
49.2516
39.7018
38.3446
70.0586
38.8236
43.6308
49.6368
41.7306
71.5788
59.1234
35.6962
38.9299
32.3174
33.0304
28.7705
38.9092
33.9493
40.7952
71.5502
71.0937
69.9254
73.647
41.3493
40.5749
52.4015
43.0117
52.9747
47.2472
51.6405
39.156
36.6007
47.5346
41.2098
38.2527
37.4545
40.5438
40.5769
38.0213
39.7949
36.7475
39.2678
41.4504
41.4076
68.9044
68.9894
68.5459
47.0342
58.7106
49.6622
49.6386
54.0218
46.1317
49.5908
42.3791
50.6794
39.4238
42.8739
41.8563
38.7119
51.4334
45.7304
49.4013
77.0281
72.4149
73.1092
82.0373
64.8198
59.6805
48.7738
69.5174
77.1019
59.1814
51.5593
59.9496
53.8033
52.4723
87.9605
67.2779
48.8936
52.8049
50.7271
49.3688
48.4899
51.6402
52.7154
63.0643
61.7847
75.4049
59.2128
57.4675
60.5004
57.1032
60.1051
55.4344
56.076
53.3444
54.4574
58.7238
57.2173
60.0136
63.58
60.1321
57.2598
40.7326
39.2054
41.5992
38.5267
41.0972
49.3493
46.0715
47.9405
45.5776
41.5602
49.4279
42.3725
46.3475
46.8467
45.8068
41.927
43.6065
41.5277
70.1093
42.4689
50.647
56.7304
55.7847
36.169
40.7664
36.8982
30.6236
32.9169
57.3323
55.7192
56.0563
54.785
48.3744
45.3206
49.2399
54.7212
73.4564
47.9749
59.9932
83.889
76.6478
44.2
51.7721
48.1246
42.5667
43.6564
80.4157
70.6644
89.2547
68.1382
55.7955
47.925
53.3005
54.5101
50.9128
47.2251
47.8605
45.3457
40.1694
54.9813
42.7956
47.8655
53.0762
49.8112
38.3033
37.0458
38.3722
38
42.7336
43.6786
41.387
38.804
57.9115
62.726
58.132
59.7166
72.9559
64.705
61.4963
62.521
66.9634
78.8344
57.7987
63.8431
62.0136
59.4237
59.4323
84.8148
65.7803
73.3563
