# vtk DataFile Version 4.2
vtk output
ASCII
DATASET POLYDATA
POINTS 642 double
-283.191 488.969 53.9054
283.399 489.306 53.9054
-283.436 -427.853 53.9054
283.683 -428.253 53.9054
1.29626e-07 -253.674 514.122
6.86884e-08 313.403 511.237
9.96187e-08 -251.549 -402.874
7.07236e-08 314.558 -405.295
457.697 30.7559 -228.967
457.344 30.7559 336.559
-457.138 30.7559 -228.622
-456.77 30.7559 336.205
-433.978 298.969 219.67
-268.818 196.895 488.862
-165.282 463.47 321.338
165.364 463.685 321.47
9.22229e-08 570.232 53.9054
167.002 467.973 -216.31
-166.913 467.739 -216.165
-269.611 197.385 -382.334
-435.708 300.038 -112.52
-535.151 30.7559 53.9054
269.004 197.009 489.163
433.805 298.862 219.604
-269.951 -136.083 490.696
1.11976e-07 30.7559 593.953
-434.999 -238.088 -112.249
-435.897 -238.644 220.403
1.00475e-07 30.7559 -485.69
-268.994 -135.492 -381.337
436.021 300.232 -112.64
269.744 197.467 -382.55
436.586 -239.069 220.666
270.116 -136.185 490.962
167.309 -407.265 324.617
-167.243 -407.093 324.511
5.70342e-08 -508.301 53.9054
-166.568 -405.325 -215.607
166.65 -405.54 -215.74
269.132 -135.577 -381.559
435.633 -238.48 -112.492
535.925 30.7559 53.9054
-373.031 408.224 140.271
-314.89 399.47 281.706
-233.159 494.334 193.571
-377.271 117.077 426.742
-369.147 258.829 369.167
-462.43 170.077 286.487
-86.1656 402.92 430.495
-228.131 346.097 423.146
-139.753 264.062 517.774
-87.4145 542.217 195.241
-147.404 549.656 53.9054
86.179 402.978 430.554
4.75604e-08 485.907 335.285
147.475 549.903 53.9054
87.4365 542.35 195.278
233.298 494.61 193.654
-87.8196 544.655 -88.1112
-234.174 496.349 -86.3654
234.389 496.777 -86.4938
87.8417 544.788 -88.1484
-86.7448 405.429 -325.227
8.66289e-08 490.328 -230.175
86.7626 405.506 -325.305
-316.969 401.895 -175.416
-373.884 409.089 -32.6573
-140.233 264.867 -411.562
-229.388 347.817 -317.341
-464.363 170.657 -179.649
-370.795 259.862 -262.769
-378.019 117.247 -319.669
-457.61 313.637 53.9054
-515.756 30.7559 -92.602
-511.761 172.175 -33.5588
-510.604 171.852 141.177
-515.423 30.7559 200.318
314.734 399.288 281.592
373.162 408.357 140.302
139.807 264.153 517.955
228.268 346.285 423.365
462.901 170.218 286.724
369.464 259.027 369.438
377.6 117.152 427.066
-141.625 118.342 566.401
1.01768e-07 178.012 572.285
-378.13 -55.7606 427.589
-283.158 30.7559 511.968
4.70795e-08 -116.806 573.36
-141.795 -56.9316 567.01
-140.579 -203.934 520.524
-509.568 -110.051 141.005
-464.087 -109.063 287.321
-462.797 -108.675 -178.861
-510.059 -110.188 -33.2761
-373.411 -347.098 140.359
-457.273 -251.92 53.9054
-373.7 -347.39 -32.6147
-283.405 30.7559 -404.562
-377.589 -55.6374 -319.245
8.67879e-08 178.247 -465.3
-141.826 118.462 -459.312
-139.745 -202.535 -409.935
-141.657 -56.8497 -458.706
5.62906e-08 -116.427 -464.22
229.529 348.01 -317.565
140.275 264.936 -411.701
374.034 409.241 -32.6919
317.215 402.181 -175.595
378.314 117.314 -319.96
371.069 260.034 -263.004
464.431 170.678 -179.684
373.698 -347.388 140.425
317.796 -341.347 283.831
234.635 -435.754 194.451
378.428 -55.8284 427.883
371.766 -198.958 371.412
464.775 -109.269 287.667
87.004 -345.04 434.176
230.208 -287.427 426.459
140.656 -204.064 520.782
87.9274 -483.792 196.103
147.461 -488.345 53.9054
-86.9816 -344.943 434.077
9.18167e-08 -429.531 338.422
-147.395 -488.113 53.9054
-87.9116 -483.698 196.077
-234.438 -435.362 194.334
87.6977 -482.41 -87.9064
234.181 -434.851 -86.3694
-234.014 -434.519 -86.2699
-87.6803 -482.305 -87.8772
86.4813 -342.776 -324.07
7.81295e-08 -427.488 -229.363
-86.463 -342.696 -323.99
316.897 -340.299 -175.363
374.129 -347.825 -32.7138
139.782 -202.598 -410.059
228.946 -285.7 -316.635
463.225 -108.804 -179.076
370.264 -198.017 -262.314
377.907 -55.7099 -319.559
457.951 -252.334 53.9054
516.693 30.7559 -92.8695
511.159 -110.495 -33.4588
510.456 -110.299 141.153
516.224 30.7559 200.546
141.866 -56.974 567.265
283.391 30.7559 512.349
141.697 118.385 566.66
-317.618 -341.139 283.701
-230.071 -287.239 426.24
-371.5 -198.792 371.184
-228.785 -285.48 -316.378
-316.59 -339.94 -175.138
-369.831 -197.746 -261.943
283.564 30.7559 -404.822
141.692 -56.8706 -458.832
141.867 118.486 -459.458
509.087 171.429 140.925
511.518 172.107 -33.5184
457.758 313.728 53.9054
-331.335 452.609 97.548
-307.066 456.837 168.401
-260.667 496.158 124.506
-379.135 353.304 253.178
-347.641 407.856 212.851
-407.47 356.676 181.246
-201.213 483.529 259.725
-277.026 451.286 239.719
-242.9 436.306 304.469
-421.08 74.3191 384.634
-425.447 145.08 360.514
-464.058 101.154 313.819
-323.044 230.34 433.626
-377.059 189.684 401.509
-326.187 158.2 461.71
-451.77 236.121 254.673
-420.105 216.382 330.651
-406.014 281.61 297.084
-43.5491 361.377 474.848
-114.399 337.565 479.631
-70.5499 291.233 518.968
-199.147 409.655 376.254
-158.804 378.088 430.669
-127.038 437.258 379.05
-206.27 232.411 507.672
-185.935 307.963 474.71
-251.537 274.59 461.011
-346.396 333.032 328.914
-302.686 306.138 400.77
-275.047 377.2 356.224
-192.871 528.376 124.779
-217.4 523.955 53.9054
-128.125 508.877 261.102
-161.958 523.333 195.891
-74.4331 565.172 53.9054
-118.569 551.369 125.439
-44.3505 562.866 125.573
43.5523 361.401 474.879
4.83714e-08 407.891 435.554
83.711 480.335 331.84
43.5007 448.913 386.317
127.074 437.372 379.141
-43.4978 448.886 386.295
-83.691 480.227 331.774
217.595 524.397 53.9054
193.016 528.75 124.832
260.844 496.473 124.554
44.3576 562.956 125.585
118.613 551.56 125.465
74.449 565.285 53.9054
201.291 483.703 259.804
162.05 523.614 195.972
128.168 509.04 261.173
-44.1866 520.603 268.319
44.1824 520.555 268.298
6.16658e-08 548.915 197.103
-193.383 529.7 -17.1572
-261.227 497.157 -16.8461
-44.4626 564.291 -17.9574
-118.881 552.731 -17.8156
-202.515 486.456 -153.243
-162.727 525.671 -88.7512
-128.997 512.188 -154.738
261.507 497.656 -16.9212
193.52 530.056 -17.2081
129.045 512.372 -154.818
162.809 525.922 -88.823
202.656 486.775 -153.387
118.925 552.921 -17.8419
44.4687 564.368 -17.9679
-43.7845 363.176 -369.332
6.50309e-08 410.383 -330.259
43.7882 363.204 -369.368
-84.53 484.738 -226.719
-43.8435 452.25 -281.162
-128.061 440.534 -273.863
128.108 440.686 -273.984
43.848 452.293 -281.197
84.5514 484.852 -226.789
8.73734e-08 551.492 -90.0087
44.5065 524.214 -162.085
-44.4995 524.135 -162.051
-307.982 458.108 -60.9331
-331.734 453.119 10.2106
-244.988 439.782 -198.834
-278.401 453.369 -132.826
-408.701 357.662 -73.819
-349.005 409.339 -105.663
-381.094 354.962 -146.408
-70.8088 292.196 -412.877
-114.975 339.102 -373.951
-252.528 275.54 -354.782
-186.758 309.197 -368.768
-206.938 233.065 -401.333
-159.786 380.235 -325.193
-200.617 412.42 -270.783
-464.807 101.267 -206.428
-426.361 145.327 -253.362
-421.656 74.3782 -277.275
-408.34 283.066 -190.67
-421.916 217.18 -224.035
-454.311 237.273 -147.991
-327.011 158.521 -354.927
-378.098 190.121 -294.654
-324.109 231.009 -327.074
-276.877 379.495 -250.42
-304.172 307.493 -294.658
-348.555 334.921 -222.824
-378.446 413.728 53.9054
-452.383 310.403 -30.3272
-420.157 364.759 10.1993
-419.666 364.368 97.561
-451.382 309.792 137.952
-491.309 30.7559 -162.659
-496.699 101.497 -138.61
-530.497 102.202 9.68172
-519.274 102.104 -64.3573
-529.813 30.7559 -19.8834
-493.092 172.89 -108.222
-479.476 238.544 -74.5763
-495.421 101.314 245.927
-490.88 30.7559 270.28
-478.085 237.937 182.021
-490.57 172.166 215.203
-530.125 30.7559 127.738
-517.054 101.798 171.66
-528.157 101.881 97.9451
-491.132 245.731 9.60498
-518.188 173.961 53.9054
-490.562 245.482 98.1553
307.192 457.012 168.448
331.479 452.793 97.5668
242.931 436.358 304.502
277.116 451.423 239.779
407.602 356.781 181.287
347.752 407.976 212.901
378.97 353.164 253.09
70.5611 291.275 519.043
114.431 337.651 479.75
251.706 274.752 461.28
186.028 308.103 474.921
206.387 232.525 507.929
158.866 378.225 430.818
199.245 409.839 376.409
464.58 101.233 314.112
425.861 145.192 360.813
421.515 74.3637 384.975
406.368 281.831 297.297
420.496 216.554 330.909
452.332 236.375 254.922
326.441 158.299 462.027
377.39 189.823 401.813
323.297 230.499 433.925
275.229 377.428 356.423
302.914 306.346 401.03
346.673 333.275 329.135
-70.8664 223.609 551.478
8.03796e-08 247.859 546.432
-207.832 159.264 533.481
-142.169 192.923 547.119
1.17701e-07 105.181 588.266
-71.5651 149.378 574.75
-71.7733 75.1672 586.789
-421.389 -12.839 384.876
-382.512 30.7559 431.895
-280.008 -53.5864 506.878
-333.892 -12.9358 473.922
-327.194 -97.081 462.967
-333.661 74.4178 473.633
-279.468 114.934 505.994
-1.95737e-08 -187.33 548.657
-71.1675 -162.91 553.582
-71.0034 -231.409 521.98
-71.8341 -13.6902 587.231
-71.6843 -88.0645 575.614
1.17573e-07 -43.7547 588.875
-207.396 -172.002 510.152
-142.653 -131.967 548.809
-208.381 -98.0826 534.737
-215.283 75.1188 545.742
-215.424 -13.6356 546.065
-143.682 30.7559 573.807
-496.026 -39.8891 246.161
-464.786 -39.7523 314.227
-528.901 -40.4713 98.0036
-517.617 -40.3642 171.789
-454.755 -175.963 256
-492.126 -111.101 215.715
-479.267 -176.941 182.332
-464.396 -39.6936 -206.198
-495.067 -39.7517 -137.979
-478.623 -176.66 -74.3519
-491.471 -110.913 -107.689
-453.339 -175.32 -147.559
-517.706 -40.3765 -63.9983
-528.938 -40.4763 9.80433
-331.66 -391.512 97.5905
-378.529 -352.3 53.9054
-331.797 -391.687 10.2024
-451.312 -248.237 137.939
-419.73 -302.907 97.5676
-408.921 -296.325 181.698
-408.323 -295.847 -73.7009
-419.896 -303.039 10.2262
-451.728 -248.491 -30.2053
-516.621 -112.014 53.9054
-490.36 -183.882 9.67334
-490.14 -183.786 98.118
-382.869 30.7559 -324.439
-421.436 -12.8439 -277.103
-280.027 115.104 -399.098
-334.15 74.4809 -366.436
-326.444 -96.7886 -354.219
-333.973 -12.9463 -366.213
-279.702 -53.4933 -398.566
6.98537e-08 248.418 -439.886
-71.0441 224.089 -444.909
-71.7967 75.1806 -479.148
-71.6658 149.546 -467.669
1.08062e-07 105.216 -480.706
-142.52 193.326 -440.535
-208.324 159.561 -426.797
-70.5038 -229.549 -410.851
-70.8603 -162.081 -443.625
6.40607e-08 -186.267 -438.439
-207.96 -97.8292 -425.963
-142.208 -131.457 -439.446
-206.353 -170.98 -400.043
8.31746e-08 -43.6132 -480.053
-71.547 -87.8365 -466.808
[...]
POINT_DATA 642
SCALARS Mean_Curvature double 1
LOOKUP_TABLE default
0.00416827
0.00416827
0.00416827
0.00416827
0.00416827
0.00416827
0.00416827
0.00416827
0.00416827
0.00416827
0.00416827
0.00416827
0.00363077
0.00363077
0.00363077
0.00363077
0.00363077
0.00363077
0.00363077
0.00363077
0.00363077
0.00363077
0.00363077
0.00363077
0.00363077
0.00363077
0.00363077
0.00363077
0.00363077
0.00363077
0.00363077
0.00363077
0.00363077
0.00363077
0.00363077
0.00363077
0.00363077
0.00363077
0.00363077
0.00363077
0.00363077
0.00363077
0.00363055
0.00364655
0.00363055
0.00363055
0.00364655
0.00363055
0.00363055
0.00364655
0.00363055
0.00364655
0.00363055
0.00363055
0.00364655
0.00363055
0.00364655
0.00363055
0.00364655
0.00363055
0.00363055
0.00364655
0.00363055
0.00364655
0.00363055
0.00364655
0.00363055
0.00363055
0.00364655
0.00363055
0.00364655
0.00363055
0.00364655
0.00363055
0.00364655
0.00364655
0.00363055
0.00364655
0.00363055
0.00363055
0.00364655
0.00363055
0.00364655
0.00363055
0.00364655
0.00363055
0.00363055
0.00364655
0.00363055
0.00364655
0.00363055
0.00364655
0.00363055
0.00363055
0.00364655
0.00363055
0.00364655
0.00363055
0.00364655
0.00363055
0.00363055
0.00364655
0.00363055
0.00364655
0.00363055
0.00364655
0.00363055
0.00363055
0.00364655
0.00363055
0.00364655
0.00363055
0.00363055
0.00364655
0.00363055
0.00363055
0.00364655
0.00363055
0.00363055
0.00364655
0.00363055
0.00364655
0.00363055
0.00363055
0.00364655
0.00363055
0.00364655
0.00363055
0.00364655
0.00363055
0.00363055
0.00364655
0.00363055
0.00364655
0.00363055
0.00364655
0.00363055
0.00363055
0.00364655
0.00363055
0.00364655
0.00363055
0.00364655
0.00363055
0.00364655
0.00364655
0.00363055
0.00364655
0.00364655
0.00364655
0.00364655
0.00364655
0.00364655
0.00364655
0.00364655
0.00364655
0.00364655
0.00364655
0.00364655
0.00364655
0.00364655
0.00364655
0.0036372
0.0036448
0.0036372
0.00364087
0.00363822
0.00363728
0.00363728
0.00363822
0.00364087
0.0036372
0.0036448
0.0036372
0.00364087
0.00363822
0.00363728
0.00363728
0.00363822
0.00364087
0.0036372
0.0036448
0.0036372
0.00364087
0.00363822
0.00363728
0.00363728
0.00363822
0.00364087
0.00363947
0.00363947
0.00363947
0.0036448
0.0036372
0.00364087
0.00363822
0.00363728
0.00363822
0.00364087
0.0036372
0.0036448
0.00364087
0.00363822
0.00363728
0.00363822
0.00364087
0.0036372
0.0036448
0.0036372
0.00364087
0.00363822
0.00363728
0.00363728
0.00363822
0.00364087
0.00363947
0.00363947
0.00363947
0.0036448
0.0036372
0.00364087
0.00363822
0.00363728
0.00363822
0.00364087
0.0036372
0.0036448
0.00364087
0.00363822
0.00363728
0.00363822
0.00364087
0.0036372
0.0036448
0.0036372
0.00364087
0.00363822
0.00363728
0.00363728
0.00363822
0.00364087
0.00363947
0.00363947
0.00363947
0.0036448
0.0036372
0.00364087
0.00363822
0.00363728
0.00363822
0.00364087
0.0036372
0.0036448
0.00364087
0.00363822
0.00363728
0.00363822
0.00364087
0.0036372
0.0036448
0.0036372
0.00364087
0.00363822
0.00363728
0.00363728
0.00363822
0.00364087
0.00363947
0.00363947
0.00363947
0.0036448
0.00364087
0.00363822
0.00363822
0.00364087
0.0036372
0.0036448
0.00364087
0.00363822
0.00363728
0.00363822
0.00364087
0.0036448
0.0036372
0.00364087
0.00363822
0.00363728
0.00363822
0.00364087
0.00363947
0.00363947
0.00363947
0.0036448
0.0036372
0.00364087
0.00363822
0.00363728
0.00363822
0.00364087
0.0036372
0.0036448
0.00364087
0.00363822
0.00363728
0.00363822
0.00364087
0.0036372
0.0036448
0.0036372
0.00364087
0.00363822
0.00363728
0.00363728
0.00363822
0.00364087
0.00363947
0.00363947
0.00363947
0.0036448
0.0036372
0.00364087
0.00363822
0.00363728
0.00363822
0.00364087
0.0036372
0.0036448
0.00364087
0.00363822
0.00363728
0.00363822
0.00364087
0.0036372
0.0036448
0.0036372
0.00364087
0.00363822
0.00363728
0.00363728
0.00363822
0.00364087
0.00363947
0.00363947
0.00363947
0.0036448
0.0036372
0.00364087
0.00363822
0.00363728
0.00363822
0.00364087
0.0036372
0.0036448
0.00364087
0.00363822
0.00363728
0.00363822
0.00364087
0.0036372
0.0036448
0.0036372
0.00364087
0.00363822
0.00363728
0.00363728
0.00363822
0.00364087
0.00363947
0.00363947
0.00363947
0.0036448
0.0036372
0.00364087
0.00363822
0.00363728
0.00363822
0.00364087
0.0036372
0.0036448
0.00364087
0.00363822
0.00363728
0.00363822
0.00364087
0.0036372
0.0036448
0.0036372
0.00364087
0.00363822
0.00363728
0.00363728
0.00363822
0.00364087
0.00363947
0.00363947
0.00363947
0.0036448
0.0036372
0.00364087
0.00363822
0.00363728
0.00363822
0.00364087
0.0036372
0.0036448
0.00364087
0.00363822
0.00363728
0.00363822
0.00364087
0.0036372
0.0036448
0.0036372
0.00364087
0.00363822
0.00363728
0.00363728
0.00363822
0.00364087
0.00363947
0.00363947
0.00363947
0.0036372
0.0036448
0.0036372
0.00364087
0.00363822
0.00363728
0.00363728
0.00363822
0.00364087
0.0036372
0.0036448
0.0036372
0.00364087
0.00363822
0.00363728
0.00363728
0.00363822
0.00364087
0.0036372
0.0036448
0.0036372
0.00364087
0.00363822
0.00363728
0.00363728
0.00363822
0.00364087
0.00363947
0.00363947
0.00363947
0.0036448
0.0036372
0.00364087
0.00363822
0.00363728
0.00363822
0.00364087
0.0036372
0.0036448
0.00364087
0.00363822
0.00363728
0.00363822
0.00364087
0.0036372
0.0036448
0.0036372
0.00364087
0.00363822
0.00363728
0.00363728
0.00363822
0.00364087
0.00363947
0.00363947
0.00363947
0.0036448
0.0036372
0.00364087
0.00363822
0.00363728
0.00363822
0.00364087
0.0036372
0.0036448
0.00364087
0.00363822
0.00363728
0.00363822
0.00364087
0.0036372
0.0036448
0.0036372
0.00364087
0.00363822
0.00363728
0.00363728
0.00363822
0.00364087
0.00363947
0.00363947
0.00363947
0.0036448
0.0036372
0.00364087
0.00363822
0.00363728
0.00363822
0.00364087
0.0036372
0.0036448
0.00364087
0.00363822
0.00363728
0.00363822
0.00364087
0.0036372
0.0036448
0.0036372
0.00364087
0.00363822
0.00363728
0.00363728
0.00363822
0.00364087
0.00363947
0.00363947
0.00363947
0.0036448
0.00364087
0.00363822
0.00363822
0.00364087
0.0036372
0.0036448
0.00364087
0.00363822
0.00363728
0.00363822
0.00364087
0.0036448
0.0036372
0.00364087
0.00363822
0.00363728
0.00363822
0.00364087
0.00363947
0.00363947
0.00363947
0.0036448
0.00364087
0.00363822
0.00363822
0.00364087
0.0036448
0.00364087
0.00363822
0.00363822
0.00364087
0.0036448
0.00364087
0.00363822
0.00363822
0.00364087
0.00363947
0.00363947
0.00363947
0.0036448
0.00364087
0.00363822
0.00363822
0.00364087
0.0036448
0.00364087
0.00363822
0.00363822
0.00364087
0.0036448
0.00364087
0.00363822
0.00363822
0.00364087
0.00363947
0.00363947
0.00363947
0.0036448
0.00364087
0.00363822
0.00363822
0.00364087
0.0036448
0.00364087
0.00363822
0.00363822
0.00364087
0.0036448
0.00364087
0.00363822
0.00363822
0.00364087
0.00363947
0.00363947
0.00363947
0.0036448
0.00364087
0.00363822
0.00363822
0.00364087
0.0036448
0.00364087
0.00363822
0.00363822
0.00364087
0.0036448
0.00364087
0.00363822
0.00363822
0.00364087
0.00363947
0.00363947
0.00363947
0.0036448
0.00364087
0.00363822
0.00363822
0.00364087
0.0036448
0.00364087
0.00363822
0.00363822
0.00364087
0.0036448
0.00364087
0.00363822
0.00363822
0.00364087
0.00363947
0.00363947
0.00363947
SCALARS CoVolArea double 1
LOOKUP_TABLE default
4553.24
4553.24
4553.24
4553.24
4553.24
4553.24
4553.24
4553.24
4553.24
4553.24
4553.24
4553.24
5898.3
5898.3
5898.3
5898.3
5898.3
5898.3
5898.3
5898.3
5898.3
5898.3
5898.3
5898.3
5898.3
5898.3
5898.3
5898.3
5898.3
5898.3
5898.3
5898.3
5898.3
5898.3
5898.3
5898.3
5898.3
5898.3
5898.3
5898.3
5898.3
5898.3
5594.17
6174.67
5594.17
5594.17
6174.67
5594.17
5594.17
6174.67
5594.17
6174.67
5594.17
5594.17
6174.67
5594.17
6174.67
5594.17
6174.67
5594.17
5594.17
6174.67
5594.17
6174.67
5594.17
6174.67
5594.17
5594.17
6174.67
5594.17
6174.67
5594.17
6174.67
5594.17
6174.67
6174.67
5594.17
6174.67
5594.17
5594.17
6174.67
5594.17
6174.67
5594.17
6174.67
5594.17
5594.17
6174.67
5594.17
6174.67
5594.17
6174.67
5594.17
5594.17
6174.67
5594.17
6174.67
5594.17
6174.67
5594.17
5594.17
6174.67
5594.17
6174.67
5594.17
6174.67
5594.17
5594.17
6174.67
5594.17
6174.67
5594.17
5594.17
6174.67
5594.17
5594.17
6174.67
5594.17
5594.17
6174.67
5594.17
6174.67
5594.17
5594.17
6174.67
5594.17
6174.67
5594.17
6174.67
5594.17
5594.17
6174.67
5594.17
6174.67
5594.17
6174.67
5594.17
5594.17
6174.67
5594.17
6174.67
5594.17
6174.67
5594.17
6174.67
6174.67
5594.17
6174.67
6174.67
6174.67
6174.67
6174.67
6174.67
6174.67
6174.67
6174.67
6174.67
6174.67
6174.67
6174.67
6174.67
6174.67
5494.21
5645.08
5494.21
6102.85
5671.27
5556.94
5556.94
5671.27
6102.85
5494.21
5645.08
5494.21
6102.85
5671.27
5556.94
5556.94
5671.27
6102.85
5494.21
5645.08
5494.21
6102.85
5671.27
5556.94
5556.94
5671.27
6102.85
6822.18
6822.18
6822.18
5645.08
5494.21
6102.85
5671.27
5556.94
5671.27
6102.85
5494.21
5645.08
6102.85
5671.27
5556.94
5671.27
6102.85
5494.21
5645.08
5494.21
6102.85
5671.27
5556.94
5556.94
5671.27
6102.85
6822.18
6822.18
6822.18
5645.08
5494.21
6102.85
5671.27
5556.94
5671.27
6102.85
5494.21
5645.08
6102.85
5671.27
5556.94
5671.27
6102.85
5494.21
5645.08
5494.21
6102.85
5671.27
5556.94
5556.94
5671.27
6102.85
6822.18
6822.18
6822.18
5645.08
5494.21
6102.85
5671.27
5556.94
5671.27
6102.85
5494.21
5645.08
6102.85
5671.27
5556.94
5671.27
6102.85
5494.21
5645.08
5494.21
6102.85
5671.27
5556.94
5556.94
5671.27
6102.85
6822.18
6822.18
6822.18
5645.08
6102.85
5671.27
5671.27
6102.85
5494.21
5645.08
6102.85
5671.27
5556.94
5671.27
6102.85
5645.08
5494.21
6102.85
5671.27
5556.94
5671.27
6102.85
6822.18
6822.18
6822.18
5645.08
5494.21
6102.85
5671.27
5556.94
5671.27
6102.85
5494.21
5645.08
6102.85
5671.27
5556.94
5671.27
6102.85
5494.21
5645.08
5494.21
6102.85
5671.27
5556.94
5556.94
5671.27
6102.85
6822.18
6822.18
6822.18
5645.08
5494.21
6102.85
5671.27
5556.94
5671.27
6102.85
5494.21
5645.08
6102.85
5671.27
5556.94
5671.27
6102.85
5494.21
5645.08
5494.21
6102.85
5671.27
5556.94
5556.94
5671.27
6102.85
6822.18
6822.18
6822.18
5645.08
5494.21
6102.85
5671.27
5556.94
5671.27
6102.85
5494.21
5645.08
6102.85
5671.27
5556.94
5671.27
6102.85
5494.21
5645.08
5494.21
6102.85
5671.27
5556.94
5556.94
5671.27
6102.85
6822.18
6822.18
6822.18
5645.08
5494.21
6102.85
5671.27
5556.94
5671.27
6102.85
5494.21
5645.08
6102.85
5671.27
5556.94
5671.27
6102.85
5494.21
5645.08
5494.21
6102.85
5671.27
5556.94
5556.94
5671.27
6102.85
6822.18
6822.18
6822.18
5645.08
5494.21
6102.85
5671.27
5556.94
5671.27
6102.85
5494.21
5645.08
6102.85
5671.27
5556.94
5671.27
6102.85
5494.21
5645.08
5494.21
6102.85
5671.27
5556.94
5556.94
5671.27
6102.85
6822.18
6822.18
6822.18
5494.21
5645.08
5494.21
6102.85
5671.27
5556.94
5556.94
5671.27
6102.85
5494.21
5645.08
5494.21
6102.85
5671.27
5556.94
5556.94
5671.27
6102.85
5494.21
5645.08
5494.21
6102.85
5671.27
5556.94
5556.94
5671.27
6102.85
6822.18
6822.18
6822.18
5645.08
5494.21
6102.85
5671.27
5556.94
5671.27
6102.85
5494.21
5645.08
6102.85
5671.27
5556.94
5671.27
6102.85
5494.21
5645.08
5494.21
6102.85
5671.27
5556.94
5556.94
5671.27
6102.85
6822.18
6822.18
6822.18
5645.08
5494.21
6102.85
5671.27
5556.94
5671.27
6102.85
5494.21
5645.08
6102.85
5671.27
5556.94
5671.27
6102.85
5494.21
5645.08
5494.21
6102.85
5671.27
5556.94
5556.94
5671.27
6102.85
6822.18
6822.18
6822.18
5645.08
5494.21
6102.85
5671.27
5556.94
5671.27
6102.85
5494.21
5645.08
6102.85
5671.27
5556.94
5671.27
6102.85
5494.21
5645.08
5494.21
6102.85
5671.27
5556.94
5556.94
5671.27
6102.85
6822.18
6822.18
6822.18
5645.08
6102.85
5671.27
5671.27
6102.85
5494.21
5645.08
6102.85
5671.27
5556.94
5671.27
6102.85
5645.08
5494.21
6102.85
5671.27
5556.94
5671.27
6102.85
6822.18
6822.18
6822.18
5645.08
6102.85
5671.27
5671.27
6102.85
5645.08
6102.85
5671.27
5671.27
6102.85
5645.08
6102.85
5671.27
5671.27
6102.85
6822.18
6822.18
6822.18
5645.08
6102.85
5671.27
5671.27
6102.85
5645.08
6102.85
5671.27
5671.27
6102.85
5645.08
6102.85
5671.27
5671.27
6102.85
6822.18
6822.18
6822.18
5645.08
6102.85
5671.27
5671.27
6102.85
5645.08
6102.85
5671.27
5671.27
6102.85
5645.08
6102.85
5671.27
5671.27
6102.85
6822.18
6822.18
6822.18
5645.08
6102.85
5671.27
5671.27
6102.85
5645.08
6102.85
5671.27
5671.27
6102.85
5645.08
6102.85
5671.27
5671.27
6102.85
6822.18
6822.18
6822.18
5645.08
6102.85
5671.27
5671.27
6102.85
5645.08
6102.85
5671.27
5671.27
6102.85
5645.08
6102.85
5671.27
5671.27
6102.85
6822.18
6822.18
6822.18
SCALARS SignedDistance double 1
LOOKUP_TABLE default
349.94
341.318
317.831
299.757
256.245
377.383
388.363
289.011
367.135
375.178
392.14
399.059
439.338
375.586
453.132
445.288
333.549
269.062
281.536
313.558
337.862
449.814
361.915
435.786
303.313
290.211
374.606
362.281
303.19
369.987
329.044
301.88
335.643
288.739
238.998
247.465
315.313
320.627
312.306
359.481
352.179
425.364
390.874
447.524
405.467
383.925
421.932
433.242
417.847
416.759
373.737
397.452
336.328
413.77
445.432
327.051
393.992
399.003
276.745
301.602
285.251
271.654
281.482
273.152
277.094
308.189
331.041
296.457
304.115
372.274
332.444
346.508
376.674
440.747
393.208
446.507
438.968
441.403
385.75
366.071
405.632
412.847
406.405
366.737
332.491
333.088
352.216
341.928
283.594
302.893
263.862
425.01
384.57
418.074
419.592
356.463
379.877
337.871
327.213
375.387
289.796
295.008
375.998
327.853
342.259
292.18
290.306
324.716
294.995
326.319
319.961
361.003
335.218
274.132
285.503
332.295
294.359
356.558
226.302
242.951
257.699
278.986
296.603
230.814
248.753
303.144
281.462
297.925
299.628
291.62
306.169
300.475
352.185
333.029
352.905
319.114
314.242
371.184
351.246
399.501
372.382
357.776
356.4
415.562
395.864
402.593
410.89
292.091
326.437
322.774
293.174
256.526
316.783
362.3
338.272
388.171
314.407
322.995
289.053
439.702
389.795
372.777
369.394
396.623
376.601
442.514
419.275
414.313
434.982
426.691
452.623
390.731
408.248
415.652
398.402
402.384
378.903
451.159
427.132
445.736
397.9
395.844
375.196
437.589
417.1
437.453
373.908
395.037
395.736
443.498
418.901
440.846
373.378
345.351
431.607
403.795
330.232
366.218
363.239
395.999
413.417
444.712
431.139
430.867
433.199
448.791
333.547
363.65
369.051
363.144
359.879
327.204
429.121
396.181
426.305
428.898
428.475
398.243
314.289
324.202
299.584
302.765
288.042
286.442
273.672
311.542
300.853
264.103
273.946
272.683
294.97
299.839
284.212
278.42
282.358
270.168
274.355
280.186
271.871
273.639
265.61
280.264
268.433
268.015
317.22
338.299
297.019
304.097
331.049
316.395
320.841
292.436
290.688
312.696
300.937
303.09
291.643
293.738
390.254
368.371
367.744
332.742
348.634
350.271
328.206
347.357
329.524
305.356
317.085
316.919
358.319
350.845
351.797
381.926
407.025
415.994
407.446
435.108
417.933
452.162
379.984
359.781
434.962
418.211
438.985
453.653
446.99
454.624
457.822
378.87
417.515
407.818
391.229
363.32
444.847
422.003
410.084
414.672
437.62
371.94
390.161
383.162
385.332
362.697
409.1
427.807
393.662
389.586
370.723
429.623
409.821
432.126
363.483
385.871
383.483
428.51
405.229
429.299
353.171
355.197
353.865
352.543
311.043
330.924
310.557
377.889
369.487
327.106
348.837
326.424
362.303
357.401
278.447
281.037
254.333
290.744
290.683
277.813
280.714
289.748
304.012
335.718
320.514
312.902
416.735
394.621
436.671
432.988
371.954
411.623
400.649
412.364
435.84
395.933
417.786
395.335
437.909
438.218
336.457
344.237
325.211
392.004
367.916
357.501
355.07
357.368
373.551
424.754
397.559
408.089
357.252
382.412
315.905
334.267
371.205
349.979
346.461
293.364
292.41
296.405
291.143
289.477
293.792
300.391
381.388
357.445
365.74
346.88
350.89
371.799
321.49
333.806
314.567
307.328
307.056
324.143
285.058
289.662
281.127
282.633
294.206
291.174
300.444
331.033
306.398
309.195
305.325
324.245
288.898
281.76
343.518
345.73
363.539
315.331
329.931
312.861
341.556
338.351
320.964
292.309
304.015
304.02
315.963
308.867
310.879
301.923
301.096
334.381
257.498
273.699
252.398
354.185
340.83
368.85
286.863
312.562
308.366
344.445
323.832
311.027
238.336
235.064
252.288
234.884
229.616
227.657
271.542
245.022
262.143
280.147
265.922
253.449
307.137
294.605
253.756
279.345
306.029
309.434
317.973
236.688
239.876
239.629
232.369
234.841
234.069
236.434
307.543
316.363
325.683
316.638
312.67
306.029
269.006
286.301
258.896
256.575
254.905
290.006
288.074
291.056
305.863
293.765
299.09
291.106
301.446
307.833
299.187
306.711
299.545
310.736
297.593
304.718
375.899
364.194
374.683
321.813
342.569
330.051
334.843
341.147
322.424
311.005
313.362
314.922
298.975
303.712
312.015
302.571
330.91
313.589
332.649
379.238
371.227
375.461
371.35
364.298
348.31
329.392
388.728
383.948
360.927
360.149
386.092
376.65
357.316
381.801
380.369
332.755
358.914
343.441
320.644
350.227
332.668
343.611
368.161
389.067
410.568
415.912
416.748
427.544
396.755
375.305
388.652
392.241
373.789
383.354
423.708
409.84
409.808
373.972
401.807
386.293
280.968
295.482
285.34
283.382
283.087
349.945
343.089
346.127
329.633
313.09
349.286
304.123
325.834
343.98
341.989
306.315
322.649
301.646
324.986
266.185
292.727
323.241
326.256
241.707
275.67
255.577
239.41
246.571
365.383
335.465
350.704
336.028
306.436
269.564
283.529
300.609
374.395
339.715
355.082
378.67
385.322
318.965
354.854
335.505
320.044
326.41
404.037
392.951
398.059
402.429
379.801
348.106
362.298
373.422
337.434
334.783
334.482
316.89
303.109
355.09
311.429
331.331
345.99
339.145
289.435
292.148
288.436
286.541
291.188
315.746
301.723
298.117
410.135
433.702
428.59
429.884
437.063
387.895
356.58
372.231
409.885
427.846
352.517
403.527
377.138
346.568
346.75
414.383
376.979
406.073
