# vtk DataFile Version 4.2
vtk output
ASCII
DATASET POLYDATA
POINTS 642 double
-119.697 230.717 -20.8573
117.878 239.565 -26.051
-107.809 -205.202 37.6478
128.435 -212.316 37.9621
1.12999 -177.346 290.6
4.03249 80.0107 259.636
2.80046 -57.3402 -85.9194
3.17254 189.278 -173.368
143.195 70.1167 -120.597
144.762 -3.41483 203.296
-116.936 67.6713 -115.794
-118.35 1.49233 203.922
-140.164 148.033 36.3654
-78.5363 47.8301 254.008
-23.8552 125.837 105.474
38.1154 125.399 111.271
0.582044 276.281 -43.7684
81.3506 288.264 -92.4852
-66.3371 280.777 -89.6894
-100.665 113.247 -175.976
-170.339 189.494 -37.8574
-130.637 21.3691 20.1657
91.034 52.2623 260.691
108.033 113.653 43.0761
-104.497 -100.264 276.042
8.56974 -9.45716 332.573
-129.401 -130.646 -3.16874
-114.294 -136.38 193.022
5.67843 67.807 -210.425
-79.9008 19.8907 -155.946
159.56 191.468 -51.6241
114.864 115.169 -179.209
140.974 -137.322 199.036
122.977 -101.183 278.695
92.2554 -225.259 238.535
-80.4238 -222.03 237.581
-0.0889871 -218.427 33.7242
-76.7321 -196.846 -42.179
92.4969 -198.076 -42.7568
92.2619 18.2523 -158.019
147.94 -140.776 -4.80379
147.422 0.304446 59.2781
-139.992 191.712 -10.1069
-106.322 113.159 49.6715
-102.154 217.064 -10.8881
-105.255 24.4032 232.216
-92.631 52.6013 202.117
-103.612 41.4369 175.579
-13.3643 96.7381 220.993
-53.9833 75.9934 224.661
-38.8288 67.8253 264.156
-22.8609 239.393 -0.856845
-46.2344 273.702 -38.169
27.4508 99.4789 220.068
6.28429 122.396 116.768
63.7025 278.244 -38.7651
37.3705 238.908 0.00313113
94.6117 221.595 -11.8672
-41.5922 299.095 -63.5004
-85.6751 257.973 -56.8238
93.8898 282.287 -64.0828
56.0165 299.824 -63.8957
-36.779 239.99 -142.284
2.00546 284.142 -92.3093
46.1354 242.391 -144.788
-142.087 224.417 -66.1657
-155.354 211.005 -34.1811
-62.4028 148.716 -184.581
-92.1131 200.801 -128.051
-149.261 185.213 -56.6838
-140.61 176.712 -86.6008
-117.952 84.9027 -141.862
-170.225 186.02 -14.973
-114.405 91.9498 -6.34228
-159.727 186.863 -35.0931
-139.677 164.279 42.2472
-120.018 -4.39994 137.329
79.2688 126.33 73.4969
134.853 210.399 -16.565
52.9656 68.7194 266.845
65.0843 81.7076 227.943
131.664 27.6542 181.301
105.445 54.9768 212.414
121.244 24.6656 237
-40.5272 29.787 298.172
5.28693 45.8794 300.106
-113.453 -52.6121 242.29
-92.8123 2.21949 272.779
5.11638 -43.9807 326.532
-44.3171 -33.8379 310.108
-71.1713 -142.752 297.669
-132.13 -50.4365 95.7629
-117.692 -72.5086 209.13
-107.523 -53.8111 -45.8311
-131.541 -74.0293 19.2823
-131.23 -151.217 116.384
-130.415 -134.642 28.1645
-124.41 -172.19 10.004
-100.131 62.9697 -176.535
-107.23 43.4427 -132.741
4.60474 102.989 -215.733
-63.5548 89.3728 -205.893
-61.8828 -24.2204 -144.922
-57.021 36.9287 -191.961
2.5554 22.3279 -187.593
102.562 208.517 -136.524
70.7499 152.182 -185.055
153.084 219.67 -35.3515
146.855 233.251 -73.807
143.672 82.2342 -144.759
149.077 170.58 -97.8339
153.248 141.424 -76.3787
157.415 -151.068 115.062
133.557 -184.428 217.541
102.275 -208.901 181.228
136.904 -52.6341 245.421
143.742 -128.259 240.977
144.212 -77.3941 208.507
62.4267 -209.724 290.833
115.532 -178.83 278.332
80.5678 -147.918 297.781
60.5358 -225.663 198.799
91.1609 -226.645 38.6904
-54.402 -208.213 288.772
1.58007 -220.671 236.112
-76.223 -226.046 39.6856
-54.7508 -224.244 195.85
-85.5637 -208.451 176.2
65.5723 -226.352 -10.5093
118.169 -219.826 -10.5857
-100.409 -213.994 -8.14566
-58.3496 -226.156 -10.5283
65.0027 -159.332 -59.5865
0.329124 -189.847 -38.8527
-56.98 -158.022 -59.8919
132.792 -180.603 -29.0255
143.747 -186.017 7.78524
70.7729 -21.3666 -145.75
91.3957 -148.72 -61.0694
130.868 -40.8747 -45.4082
130.585 -101.794 -39.86
131.161 45.6264 -134.038
149.798 -140.085 28.2977
123.781 62.4927 -43.3971
147.695 -88.0199 22.3284
148.464 -53.0044 100.568
145.272 2.12857 152.009
51.7202 -26.5402 321.49
105.454 0.471037 279.007
51.2684 28.1001 303.879
-112.59 -177.604 216.805
-103.479 -174.51 273.337
-116.932 -131.043 238.96
-77.5214 -142.451 -62.6786
-112.825 -172.047 -26.0317
-121.08 -94.5214 -39.5957
117.559 63.5131 -179.18
64.7214 35.2272 -193.257
66.7619 88.9644 -209.717
145.835 77.384 50.9917
158.182 174.016 -31.4238
153.203 191.247 -33.4029
-130.786 213.531 -13.6765
-122.842 208.156 -9.9963
-112.279 224.427 -14.5802
-135.136 133.576 56.7668
-133.039 183.908 -4.24643
-153.327 167.361 6.27584
-68.7807 196.618 6.90675
-110.651 196.174 -4.60198
-60.0611 122.365 78.8775
-113.397 12.3166 217.444
-107.741 27.3041 209.195
-113.593 14.2776 197.124
-88.4269 50.0245 231.271
-98.976 40.1781 221.259
-94.365 36.1447 244.473
-120.551 99.196 111.869
-97.8245 51.8928 186.17
-113.262 84.0698 135.768
-4.83843 89.6747 240.611
-25.8486 81.9536 243.81
-13.5324 74.8317 263.102
-40.2126 90.9292 201.858
-33.7697 87.601 224.039
-20.3294 100.59 202.008
-58.9733 58.8728 260.997
-48.1879 72.6017 245.063
-66.6567 63.2599 241.562
-82.6901 72.7881 153.994
-76.493 64.2793 214.913
-64.5247 78.5098 184.149
-72.062 238.934 -23.6471
-84.0101 248.84 -36.133
-22.5826 207.153 24.5996
-49.9512 228.719 -7.76895
-35.4059 279.464 -38.8356
-36.2592 260.208 -25.3117
-22.6407 259.854 -20.3838
15.2183 90.3902 239.752
5.8342 99.0669 221.886
30.7186 121.31 119.004
17.3557 103.093 203.78
35.8039 103.034 200.964
-3.06208 103.186 204.123
-10.9856 123.353 114.646
81.742 262.558 -36.9203
74.3598 252.749 -26.919
110.894 234.336 -22.3003
31.9823 259.282 -20.8801
54.4553 262.463 -26.1426
49.3863 281.147 -39.6913
62.9434 196.733 20.9904
56.0098 236.81 -6.75844
33.694 206.068 28.3859
-4.44658 204.623 35.1586
14.4122 202.831 36.8469
1.89694 237.12 8.2696
-62.8834 274.647 -51.1402
-110.919 246.064 -36.7208
-28.0763 293.518 -55.0225
-43.0709 292.364 -55.9828
-74.6134 278.531 -71.4651
-54.4394 293.762 -65.5153
-53.3727 298.699 -71.1331
104.312 259.693 -53.3466
77.7347 287.062 -53.9101
70.5283 302.496 -71.9396
74.7049 297.679 -64.8577
89.8708 291.576 -71.5783
61.255 293.466 -55.4966
36.1432 292.291 -57.2361
-17.9904 218.134 -160.613
2.94325 242.866 -148.37
24.7374 219.418 -161.918
-42.8941 290.297 -96.4449
-22.8737 264.183 -118.775
-50.9766 262.818 -112.255
64.7414 265.927 -113.052
30.0013 264.129 -119.567
54.2726 291.382 -96.4054
2.23443 291.905 -63.239
34.7701 300.668 -73.0165
-27.2023 302.928 -73.4894
-134.12 235.073 -39.1759
-138.095 223.55 -29.1873
-105.165 252.145 -76.9208
-121.153 245.456 -56.7269
-169.183 195.017 -34.1729
-152.345 219.474 -43.3883
-162.882 202.408 -49.4604
-33.7653 170.372 -178.418
-47.9663 202.293 -163.424
-95.3719 156.305 -153.306
-72.7984 178.39 -162.018
-85.0023 129.165 -185.378
-62.0751 225.378 -141.551
-77.3892 239.605 -107.357
-120.96 106.774 -92.9302
-123.073 123.1 -99.5441
-118.626 75.99 -128.65
-160.963 186.801 -60.1954
-153.65 183.544 -78.5398
-168.476 189.228 -40.8978
-111.531 98.4673 -160.309
-119.499 133.717 -111.817
-112.437 138.84 -130.499
-125.739 219.5 -96.0835
-126.325 185.097 -107.741
-148.467 198.468 -77.7658
-148.22 203.839 -20.3971
-173.391 191.567 -33.1819
-171.086 189.493 -25.8245
-160.391 179.362 -9.18119
-160.177 171.465 2.72945
-115.948 73.68 -92.6319
-134.746 152.733 -39.2451
-157.824 129.67 -25.3236
-159.448 141.062 -25.4166
-143.854 58.2264 11.0394
-168.898 189.602 -33.6472
-173.431 192.472 -30.1122
-112.602 18.7132 170.207
-118.327 2.00703 188.011
-146.119 148.351 27.6685
-103.017 83.7331 107.3
-126.219 -5.12998 79.9589
-115.925 35.8827 100.267
-134.778 70.4415 7.18138
-179.379 191.355 -27.2785
-174.04 172.751 -36.7647
-170.233 186.081 -13.1776
124.233 215.09 -12.6872
133.174 221.022 -17.1014
57.4338 127.143 96.7224
103.538 193.753 2.15134
132.12 193.696 -12.6137
121.998 198.663 -8.48141
94.4244 123.946 52.4731
24.6964 75.2358 263.683
39.5972 84.4855 244.068
78.5682 66.5885 247.523
61.405 75.0264 247.96
72.3194 62.0528 266.363
47.1941 92.7677 223.784
51.2643 98.3005 203.895
140.945 10.9518 193.129
129.841 25.4994 209.724
136.554 7.85019 218.883
105.969 64.8548 167.053
119.879 43.3589 196.483
115.703 56.0758 149.341
107.522 40.6589 251.409
113.242 41.3757 227.91
100.509 53.3629 239.604
73.4189 86.9988 195.798
86.6841 69.2731 222.518
91.8908 76.1537 181.352
-14.9165 59.4872 282.363
4.11601 66.8159 280.366
-63.1551 42.7687 275.709
-42.2459 51.985 281.799
6.97704 17.9497 318.769
-15.249 35.9177 302.245
-12.8072 10.6333 319.875
-117.782 -20.6911 223.303
-111.445 0.431897 236.798
-96.5232 -47.1125 272.125
-105.114 -22.5588 256.148
-111.255 -78.4412 259.069
-100.398 16.373 252.908
-88.0223 27.403 263.885
-1.57074 -115.546 295.398
-41.2653 -100.496 299.698
-49.1515 -159.407 297.966
-8.12891 -12.9895 329.881
-16.5099 -36.7743 323.208
8.6751 -18.2239 337.641
-89.3144 -122.921 289.617
-64.8614 -87.3794 300.1
-80.7065 -72.2932 292.861
-69.323 17.1277 287.411
-73.6345 -17.3691 293.729
-38.7187 1.7021 310.986
-118.8 -21.767 173.79
-118.282 -29.7023 205.567
-132.85 -25.2031 72.67
-129.79 -26.6481 110.843
-117.21 -113.744 201.918
-118.516 -62.2434 159.262
-118.227 -94.0355 146.846
-105.624 32.7671 -100.78
-107.72 -0.177537 -45.7065
-131.837 -106.907 7.13808
-128.755 -77.8283 2.79518
-125.947 -106.775 -12.0302
-125.985 -25.7857 24.6502
-131.675 -24.9252 40.062
-108.09 -188.649 63.7138
-122.732 -171.648 33.2761
-117.003 -191.157 19.9334
-112.816 -148.75 104.477
-120.538 -153.606 56.9132
-107.292 -150.154 164.679
-130.23 -151.128 2.71385
-130.963 -151.443 19.8278
-131.551 -134.056 13.0465
-132.405 -59.9835 44.4119
-131.95 -107.831 20.1622
-130.134 -93.0154 57.453
-114.841 64.8979 -141.967
-111.653 54.3539 -125.954
-101.912 85.3954 -178.803
-111.042 73.6104 -162.17
-101.137 37.5853 -145.814
-106.571 54.4723 -156.98
-94.3013 44.6292 -168.823
2.97542 139.266 -198.156
-35.9045 126.145 -204.081
-31.3353 77.5132 -210.796
-32.7942 96.9075 -213.085
6.57904 85.9022 -218.454
-66.6194 113.77 -203.933
-85.9507 102.493 -196.745
-66.9943 -34.2998 -118.509
-31.8004 12.4438 -172.621
3.09367 9.77323 -168.863
-71.3417 28.8709 -175.374
-52.652 18.4446 -173.266
-54.7235 -9.42668 -151.576
2.87515 37.9902 -200.963
-31.8237 27.467 -192.599
-33.735 45.4901 -204.223
-87.0709 74.0403 -196.209
-63.0643 60.0424 -204.131
[...]
POINT_DATA 642
SCALARS Mean_Curvature double 1
LOOKUP_TABLE default
0.0398729
0.0459413
0.0279145
0.0292227
-0.0193488
0.0176088
-0.00949901
0.00132163
0.028967
0.0292295
0.0141418
0.028039
-0.633446
0.0177364
0.00276472
0.00686754
-0.0128825
0.0349476
0.0267902
0.0169676
-0.0457275
-0.0916157
0.0214629
-0.00540945
0.0188623
0.0110276
0.0150015
0.00707636
-0.00352089
0.0056953
0.018904
0.0142393
0.008843
0.0170786
0.0180826
0.0203882
-0.00465664
0.0254146
0.018049
0.00783121
0.008521
-0.000912206
0.00181954
-0.0304352
0.00329688
0.0173814
0.0311401
-0.0025041
0.0168636
0.00345658
0.0187694
0.0113794
0.0156116
0.022249
-0.00535668
0.0271501
0.0121182
-0.00516296
0.0368457
-0.0539471
0.0560267
0.0429504
0.0140507
-0.00533524
0.0165666
0.0219221
0.0259749
0.00886551
-0.000789577
-0.0311392
-0.0419966
0.0172157
-0.421373
-0.0259995
0.155235
-0.0348149
-0.00182506
0.00478121
0.02338
0.0156172
0.00692028
0.00361185
0.00477349
0.00834383
0.0142102
0.0211059
0.00401429
0.0204372
0.00774651
0.00284126
0.0172408
0.00705054
-0.000656152
-0.0271947
0.0116113
0.0514277
0.00586986
0.0140089
0.0247394
0.00116624
0.012013
0.0104959
-0.131335
0.0170135
0.0123354
0.00721182
0.00421784
0.0529767
0.0306061
0.030852
0.0202075
0.0572557
0.0565171
0.0260859
0.0247785
0.00756782
0.0105528
0.000810457
0.0358723
0.0205035
0.0109051
0.00590353
0.0110766
0.0324777
-0.0177234
0.022659
0.00496954
0.0285225
0.0256981
0.0366872
0.0343286
0.0218119
0.0161044
-0.0167054
0.0209045
0.0262799
0.0127697
-0.0130298
0.0160417
0.00247989
-0.0743858
0.0201309
0.00018353
-0.0143644
-0.0077474
-0.000275461
0.0143902
0.00964372
0.0100406
0.0110212
0.0179701
0.0280538
0.00443107
0.0105928
0.0174635
0.0223172
0.0228761
0.0173983
0.0107995
0.124713
0.0506151
0.00731216
0.0414705
0.0135577
0.0269252
-0.0777427
-0.0113788
-0.0140962
-0.00672168
-0.000915288
-0.00305132
0.0162199
0.00909838
0.00239676
0.018207
0.01811
0.0206188
0.0194108
-0.0345268
0.163252
0.0152623
0.00707128
0.00924552
0.00747771
0.0110348
0.0162574
0.0175707
0.0119525
0.0126182
-0.0317742
0.00968712
0.00589
-0.00446165
-0.0122151
0.00150283
-0.00300334
0.0263764
-0.00030418
0.0098224
0.00839309
0.0168927
-0.00289202
0.00150217
0.0166881
0.0109695
0.0046117
0.00979358
-0.00292909
-0.00316316
0.00112729
0.00879572
0.0174296
-0.00263425
-0.00026614
0.00719557
0.0154082
0.00815474
0.0149989
0.0273102
0.0613855
0.0467587
0.020889
0.0498786
0.0180455
0.0686552
-0.0409935
0.0207927
0.0624329
0.0406958
0.0739932
0.0175325
0.0199722
0.00846671
0.0160538
0.00985469
0.0308371
0.00355039
0.00825607
0.00757091
0.000210409
0.0227379
-0.0510415
0.0488038
0.0603277
0.032363
0.00749733
0.0158771
0.0417884
0.0564919
0.0423716
0.0327443
-0.0013076
0.0170918
0.00816623
0.0095548
0.0197056
0.0161809
-0.00696252
0.000266184
0.00601972
0.0148714
0.118843
0.0576565
0.193667
0.0147176
0.000876429
0.00368735
0.0197364
0.0137686
0.0219798
0.0137229
-0.0177418
-0.0120614
-0.034486
-0.3151
0.00173633
-0.0244806
0.067918
-0.0848087
-0.0945797
0.0305109
-0.743668
0.00183288
0.0156728
0.126197
-0.0430486
-0.00159265
0.00211206
-0.00661767
0.167413
0.033263
-0.135336
0.024219
0.0545487
0.00592566
-0.00456212
0.00907346
0.0163435
-0.00527812
0.00661373
0.00898127
0.0105729
0.00907196
0.0245998
0.0168053
0.0158671
0.0187545
0.011839
0.0127066
0.00500506
0.010218
-0.00140991
0.0238013
0.00672034
0.0160225
0.00689251
0.00676641
0.00667654
0.00733494
0.0264766
0.0158092
0.0197678
0.0136146
0.00644387
0.0193535
0.0177059
0.0146562
0.00373985
0.0106601
0.0171803
0.0162267
0.0182675
-0.00567827
-0.00186386
0.00272623
0.0236986
0.0117688
0.0625348
0.0145503
0.0152942
0.0131707
0.0137191
0.0124846
0.0117066
0.000604935
0.000973952
0.0141505
0.0117654
0.00309208
-0.00312821
-0.000591948
-0.017398
-0.00319945
0.0203479
0.00683962
0.00110237
-0.010899
0.0324606
0.00169566
0.0283006
0.00925471
-0.0126338
-0.0391337
-0.0666369
0.0301875
0.0243796
0.0137756
0.00377544
0.00490713
0.00189756
0.0247367
0.0139044
0.0157701
0.0255463
0.00263813
0.020049
0.0172587
0.0016894
0.0105629
0.00498366
0.0200131
0.0341726
0.0251443
0.0295554
-0.0306564
-0.00369817
-0.0013212
0.0181293
0.00763881
-0.108333
0.0157123
0.0226246
0.0192851
0.0320775
0.0257903
0.0253654
0.0101946
-0.000762663
-0.00264443
0.0140583
0.0179848
0.0145821
0.00783265
0.0263198
0.085946
0.0240675
0.0254944
0.0452073
0.000887243
0.00112927
0.0502365
0.0257143
-0.0120205
-0.000725115
0.0048885
0.0160082
0.0275055
-0.00704402
0.0259268
0.0211194
0.0284642
0.00267544
0.00361394
-0.0167285
-0.00193917
0.0205232
0.0193465
-0.0459101
0.0256388
0.0116265
0.0323434
0.0232497
0.0113464
0.00324227
0.0272991
0.0203776
0.00209138
0.0019507
0.00135283
0.00636832
0.0342309
0.0201369
0.00310894
0.0263741
0.0336436
0.0279528
0.00814306
0.0166494
0.017326
0.0209156
0.0302189
0.0178413
0.0593549
0.0267009
0.0206349
0.0225898
0.00939295
-0.0153067
-0.0107981
0.0454164
-0.0115514
0.0243397
0.0243077
0.02991
0.0173834
0.0218551
0.0216427
0.0732479
-0.017419
-0.0112447
-0.00383561
0.0116601
0.0290864
0.0356258
0.0265072
0.0449222
0.0521627
-0.0141499
0.0233084
0.0289973
0.016091
0.00123002
0.0347411
0.031436
0.0190152
0.0310176
0.0345503
0.0285601
0.0370674
0.0317202
0.00779011
0.017124
-0.0143719
-0.0194157
-0.0126978
0.0160847
0.0225542
0.00909173
0.019046
0.0291526
0.0116855
-0.00499993
0.0314278
0.0197798
0.0432848
0.033196
0.0255399
0.0299874
0.00233696
0.0361758
0.018884
-0.0278025
0.0850927
-0.0417368
0.246651
-0.101924
-0.0212597
0.0324306
-0.000545019
-0.0185273
0.0324339
0.0307864
0.130748
0.00608662
0.0115939
0.064769
-0.0256372
0.0223984
0.00409358
0.01523
0.0610082
0.0523768
-0.00822985
-0.0636409
-0.0126928
0.00614553
-0.00324784
0.00258656
0.00280323
0.0060877
0.00822966
0.0152419
3.05763e-06
0.0222346
0.0029273
-0.000233024
-0.000671252
-0.0021046
0.0310831
0.0140035
-0.000605145
-0.000208164
-0.00283331
0.0106095
0.00252931
0.0222418
0.0322323
0.0100919
0.0208378
0.0143394
0.00984026
0.015541
0.00394555
0.0171906
0.00582842
0.0194037
0.0207899
0.0116827
0.00944986
0.0228845
-0.0171029
0.0136959
0.0152856
0.0206874
0.019248
0.0255845
0.0149438
0.0224817
0.0230508
0.0308049
0.0118132
0.00268799
-0.000662749
0.0147776
0.0210904
0.0233647
0.0257623
0.0109782
0.0998385
0.0266918
-0.0256596
0.251166
-0.0402532
0.0268913
0.0143868
0.015272
0.0283755
0.0191261
0.133968
-0.0394343
0.166344
0.0220806
-0.0173358
0.0225784
0.0204057
0.000928821
0.0213972
0.0163549
0.0151874
0.0293039
0.0231452
-0.000877998
0.0143746
0.0196809
0.0123379
0.0187971
0.00860653
0.025025
0.0145992
0.0291355
0.0150237
0.0220836
0.0161133
0.0262689
0.00816509
-0.0170926
0.00988381
0.000843163
-0.025916
0.0173055
0.0315933
-0.00671464
-0.0121638
-0.0382759
0.0364194
-0.00176063
0.00749578
0.0177237
0.0475504
-0.151594
-0.208473
0.109208
SCALARS CoVolArea double 1
LOOKUP_TABLE default
372.402
474.397
685.214
714.288
1599.84
394.755
5780.29
1446.21
191.342
393.749
547.22
349.771
184.278
505.098
3232.64
1837.73
1182.79
902.192
976.203
963.271
93.1523
1402.8
493.352
2425.36
1073.51
398.846
459.169
1479.2
991.974
2635.29
250.116
1133.98
1433.46
1254.31
965.007
832.579
3688.27
509.985
580.295
2705.9
607.35
1941.47
358.866
3830.07
820.543
420.361
834.981
1175.12
429.167
674.902
558.417
878.402
599.597
456.537
2079.25
405.516
968.716
1148.95
264.989
665.576
383.655
326.902
1152.96
1552.29
1277.93
899.787
302.849
1216.53
1775.84
1213.94
733.404
739.294
87.4606
4946.13
326.209
4782.08
1569.11
2418.86
174.002
607.684
590.724
795.008
751.511
595.8
836.353
675.06
855.945
921.07
1925.44
1400.17
1033.45
2030.94
1338.68
2082.03
730.238
2534.35
1206.37
443.759
464.358
426.93
1114.33
736.365
832.19
609.409
801.684
1669.83
1363.35
312.92
903.879
563.191
1050.96
535.898
2703
577.58
1050.38
1062.36
543.492
1065.42
1046.87
1012.76
1320.12
2165.92
1290.85
1036.17
1584.95
974.178
1743.65
935.272
952.151
508.305
455.46
806.989
1378.92
1266.52
1033.44
510.383
369.907
886.658
873.217
1696.46
1094.62
629.187
1645.11
4021.67
860.822
2534.81
977.799
1248.39
1022.5
816.679
604.452
824.763
491.191
942.23
579.115
1105.68
543.128
725.365
770.893
1249.68
915.502
261.156
310.199
302.43
428.792
1930.17
1324.48
476.887
3130.25
2301.3
4586.39
422.158
492.378
423.091
490.068
423.231
406.822
998.477
605.088
884.039
456.183
528.087
516.875
2012.62
508.161
1067.46
474.277
473.26
514.818
2211.08
856.318
2445.28
885.07
727.375
2233.59
1313.3
499.143
660.115
1006.01
516.53
398.749
1763.4
1107.01
819.529
1012.28
1712.14
640.233
713.046
515.067
1218.99
562.207
690.751
2502.4
1129
1704.09
1524.75
1787.94
1244.24
628.617
593.626
579.071
301.3
647.487
329.805
418.22
706.12
468.647
471.985
218.981
454.577
321.774
674.1
1284.79
1386.36
1340.93
978.529
1430.28
1084.42
1126.14
1566.63
1134.67
549.286
948.907
868.925
457.457
387.846
1275.54
757.26
165.012
452.007
464.42
1616.56
1214.79
1588.06
1375.98
962.033
1357.67
1653.75
1331.77
1084.54
547.198
285.768
643.95
122.328
856.789
996.205
1340.81
1514.23
1461.41
802.023
433.493
45.1277
243.198
320.214
117.509
3231.33
2563.88
737.144
1332.18
1707.27
553.086
23.395
1634.42
687.284
1107.07
2773.07
2208.11
4600.54
4666.3
163.512
2085.58
546.662
403.379
241.578
2792.71
1847.56
896.861
949.921
2179.33
623.398
591.76
494.798
461.667
450.308
460.529
1336.25
392.351
570.828
572.449
1735.77
787.882
2000.04
476.188
517.863
500.003
1872.91
763.572
1857.04
642.274
540.761
672.453
655.945
661.139
738.767
700.02
710.187
704.515
1256.11
922.414
859.242
572.03
600.542
3140.63
2019.54
1563.87
673.619
1211.91
393.356
984.669
1437.35
1428.64
979.816
1444.03
1117.54
1557.94
803.107
1235.9
1446.48
1317.91
2128.52
3159.46
1643.66
4595.81
467.955
1828.56
946.019
3061.63
1107.61
1832.5
1058.1
582.959
2602.05
998.503
1069.88
374.1
482.983
345.664
1293.04
772.194
2844.67
361.325
496.712
566.547
441.363
900.43
394.354
536.945
1868.78
1399.02
893.632
841.285
647.365
853.396
652.956
3712.5
1154.26
3589.22
655.931
630.455
941.323
897.336
685.579
911.526
645.343
783.974
589.327
1330.15
1699.87
1492.31
1304.51
1075.32
1323.29
1618.49
438.508
522.458
454.454
543.939
245.03
637.278
1198.9
250.59
711.319
253.168
1636.22
1104.95
902.63
379.362
845.426
474.284
1565.12
886.432
1670.7
1941.61
2388.39
1126.41
591.916
1388.99
1480.74
718.815
755.025
827.205
798.553
847.678
727.816
806.915
716.886
988.335
1003.96
610.924
503.102
1036.09
770.466
1824.19
1066.53
852.078
983.11
1291.92
844.765
996
659.34
939.815
1038.09
1272.33
897.47
777.355
1118.8
2576.86
2488.48
5739.94
1028.6
1466.6
1065.66
1537.36
895.616
1579.95
1183.85
904.458
1072.77
1084.57
5059.58
1635.3
2001.37
709.619
832.689
678.475
969.389
930.331
3514.15
599.073
536.184
1385.66
818.02
500.267
557.169
718.6
483.858
528.808
579.334
461.328
461.684
644.35
1303.82
4060.32
2122.73
3763.31
932.138
1190.68
639.162
497.466
1079.15
782.304
1379.94
1258.1
1354.44
455.157
544.185
549.588
499.108
436.247
387.42
504.381
3882
1461.53
4010.26
586.779
961.615
496.459
499.595
765.206
866.641
415.564
783.408
1068.77
1308.58
1178.51
720.984
4340.4
624.082
2733.79
689.186
789.278
483.047
638.893
1497.48
3171.61
1538.67
2834.71
1343.18
2994.93
3882.04
1667.49
511.883
1369.89
450.234
3211.36
2096.51
1440.05
1760.81
1099.28
686.549
1226.88
3159.14
2468.18
1715.3
1804.96
1197.36
458.606
872.54
729.056
734.152
1035.18
1362.89
728.033
635.63
758.052
673.075
699.25
1418.31
1023.64
908.932
2054.2
783.659
810.931
1308.38
599.021
772.979
844.587
786.232
845.635
888.346
756.203
544.206
679.76
647.137
734.165
781.856
683.578
516.339
1121.82
540.785
401.606
555.053
3949
440.147
534.783
457.366
480.544
569.814
896.439
4244.38
610.5
705.603
580.806
699.348
682.247
2725.17
389.642
624.351
500.453
440.986
652.352
1206.68
922.055
749.044
680.735
720.826
1451.94
839.274
984.731
752.847
747.342
740.491
875.842
792.926
618.681
1555.28
1465.58
1803.72
2685.18
1561.03
160.99
628.293
3730.25
3349.65
180.789
1298.09
228.635
156.208
165.935
357.452
113.264
876.728
SCALARS SignedDistance double 1
LOOKUP_TABLE default
27.7134
28.5581
21.0535
18.5311
26.1222
26.0663
28.9817
18.4967
29.3961
26.3788
29.5045
28.3033
95.2846
24.1048
31.7475
33.2018
29.8958
13.0678
19.604
22.3628
49.8024
40.5694
23.5722
45.4257
19.7319
20.3455
25.4354
29.3048
21.2576
27.6048
27.0697
19.1827
27.6371
18.9764
17.5821
16.5305
31.5047
21.6722
22.6316
28.2153
24.5593
29.0051
45.6108
61.0854
35.9557
26.9817
29.696
31.9826
27.3375
28.5223
25.1363
28.614
27.5038
28.3644
32.5455
25.851
28.5209
31.5294
22.5548
29.2614
23.6324
22.5231
17.3155
23.3996
15.8018
18.3711
30.5205
19.2243
23.1842
29.7466
31.91
27.8724
64.9557
55.3321
43.5699
95.6787
29.9737
35.0706
30.8025
25.014
27.2775
28.6859
27.2806
26.4393
20.8162
21.5283
24.9144
20.9123
21.5589
22.3168
18.8001
27.9449
27.6444
34.2292
28.5149
61.1778
27.4432
23.1503
22.8464
30.6893
17.3887
20.6756
60.4264
22.5494
23.8957
18.7029
19.236
26.9797
18.1559
25.291
32.4109
46.1015
61.0579
24.7422
32.8035
22.413
25.3503
25.8402
13.2987
15.7703
18.92
24.4298
19.6935
11.9558
28.0752
19.0675
25.1272
36.9984
19.3751
15.6918
16.9478
19.1812
30.3321
37.6807
30.6507
21.126
25.3262
56.7482
31.7776
33.2628
26.821
29.7413
26.2835
39.0993
29.4055
28.3532
26.9184
20.4627
21.0566
22.1674
24.3967
17.201
26.8595
33.3187
22.0779
38.8927
20.5206
22.363
19.9246
52.8381
37.7932
28.3427
33.1604
37.4298
32.2992
97.7445
48.421
74.3054
34.2451
41.5594
36.489
28.169
29.07
29.3657
27.0682
27.8819
24.3222
68.5737
33.3435
60.1451
26.929
27.0934
25.1445
30.2244
27.2359
29.4956
24.5416
27.4217
28.049
34.2218
28.6741
32.2585
29.7436
28.2187
31.1187
31.6132
26.346
29.2322
29.3948
27.2793
27.9509
32.3757
32.1379
32.0425
32.2145
32.6333
29.6643
29.7009
28.6552
28.2098
29.4732
26.5068
31.3657
29.2746
30.8412
31.6751
32.117
26.9863
27.2967
25.5716
22.7619
22.4049
27.2838
20.789
20.4225
29.9788
21.9296
20.8156
20.8224
20.4875
22.3689
28.3421
18.6913
15.6945
19.2157
15.3197
21.4546
19.2306
20.8226
21.2413
16.1722
31.5956
28.0842
20.3802
21.7252
24.6209
25.7308
19.8066
48.6059
23.7156
35.0183
20.0324
19.7956
22.2945
18.4558
18.9313
17.7064
21.9407
31.9803
36.8922
28.5891
40.2158
36.7589
47.8296
22.3297
37.376
32.8702
17.0039
30.3857
28.552
38.131
54.8199
56.3739
62.6571
74.3691
33.5679
42.8787
77.4486
73.3071
66.7692
51.2186
54.9364
30.3785
28.2834
92.0933
44.8121
31.5147
29.5605
66.342
62.0021
61.1199
64.4317
33.9588
29.7174
30.7246
34.1154
32.702
35.0029
42.7637
24.8309
25.9244
26.4541
26.9889
23.513
25.9775
28.0864
26.8086
25.8273
24.5665
30.1691
27.3734
29.5147
23.6455
26.952
25.6763
29.9359
27.9117
30.8922
23.4905
23.5715
22.5323
21.8157
20.7792
22.2927
19.9006
27.7044
25.3387
22.3811
24.18
23.8788
24.3021
22.6302
21.1128
20.8466
19.1252
20.9549
20.8972
20.3344
17.7368
21.2635
20.051
20.8603
20.2468
21.5967
28.7828
28.2518
28.8917
30.1153
27.1449
28.4686
28.1825
40.0721
40.7752
27.6409
28.9481
26.432
31.9695
32.1879
27.3363
24.6676
24.5117
44.0965
30.1797
38.7849
25.9627
26.7256
27.3573
28.2404
27.7695
26.8598
28.7383
30.4447
22.0417
22.7964
28.6742
25.6138
22.523
18.5147
18.5275
21.0736
20.3036
19.7656
18.6588
17.9322
67.2498
30.0349
28.0577
25.2619
28.2171
45.9307
20.6359
22.8622
18.9749
18.3489
18.8868
20.443
19.1753
21.3679
20.848
16.6348
17.126
17.9147
18.8226
23.7719
20.6076
26.0531
19.7246
27.0461
30.3164
26.5237
28.0775
29.3062
28.5699
25.2744
31.0837
19.9352
29.206
35.2293
26.6302
16.5062
22.4958
27.449
24.6595
47.5084
49.4344
24.873
26.6493
37.0882
20.0906
24.232
20.7897
25.4206
25.4793
26.4782
22.1985
24.8035
22.0853
25.468
25.2943
25.1773
22.167
19.149
19.1594
12.7016
12.6875
15.8831
18.3243
16.9391
16.4853
24.7073
21.7825
18.3733
54.2599
18.2622
21.9622
27.781
20.2869
54.449
31.2726
18.2418
25.0883
15.0072
15.9769
13.6907
21.4754
16.9889
18.9906
55.8564
51.0396
46.1326
58.9004
20.1531
18.9113
32.1142
22.0368
29.9296
23.6353
31.6207
19.6254
16.2866
26.59
19.8134
17.0655
18.6045
18.5179
18.8921
17.4432
18.3553
17.7882
17.2215
20.0569
19.9551
34.9301
39.5349
34.6973
23.5921
33.4954
23.3358
23.7236
27.6275
23.0272
31.3352
19.6287
28.581
20.5159
23.4727
20.025
17.4474
25.5094
23.9468
23.0862
59.5212
58.5436
66.4975
61.1264
42.7782
32.8837
25.5526
36.9943
48.291
29.9844
24.0807
38.0833
26.7787
26.9861
55.5375
45.2952
23.4342
25.1586
23.4713
25.1115
23.0873
25.4846
30.4935
44.1078
29.868
49.4076
29.3115
28.1643
30.2383
28.279
30.8233
26.6935
26.8991
25.8495
26.2431
29.052
27.6983
31.15
31.754
29.6486
27.9819
20.4429
18.051
20.6628
18.2376
20.0689
23.6836
20.6891
23.985
22.0503
19.1923
23.353
19.7342
22.5257
22.3222
20.6216
20.585
21.7437
19.1519
48.8099
21.1411
27.038
29.2507
27.1855
18.704
19.0747
17.1956
14.4413
17.2497
27.8975
26.8412
26.9989
27.1448
25.6427
22.1954
25.9814
26.8021
58.7106
25.1638
34.0677
64.0211
72.2084
24.0042
25.5014
22.5433
19.6768
20.0594
62.5605
54.9217
60.9442
47.8654
27.0041
22.6572
24.9246
25.9649
24.4972
21.7478
22.5904
21.9839
18.8499
28.1063
20.3842
22.8621
27.5009
24.3833
18.5091
17.2567
18.9943
18.6722
20.9288
20.1103
20.5592
17.7802
27.1811
39.0283
27.8669
28.0437
43.7853
42.5083
30.038
30.1121
35.3667
65.5254
28.7047
32.6133
29.2954
27.8188
28.3132
58.893
38.7436
51.7764
