# vtk DataFile Version 4.2
vtk output
ASCII
DATASET POLYDATA
POINTS 2562 double
-1.23654 -18.9034 -0.516403
1.48833 -18.7497 -0.53471
-1.61006 -23.131 0.0639809
1.2418 -23.0831 0.180078
-0.0796304 -21.8273 1.64905
-0.00657105 -19.41 1.38693
-0.185895 -21.7881 -0.146635
-0.209456 -19.4132 -1.45994
1.67349 -19.7526 -0.779475
1.09227 -20.589 0.445688
-1.67656 -19.7951 -1.09106
-1.19871 -20.9204 0.576162
-1.55016 -19.5142 0.0760376
-0.655137 -19.9095 1.20749
-0.496178 -18.8213 0.965643
0.502063 -18.8185 0.956318
-0.0158101 -18.4776 -0.204321
1.20795 -18.7724 -1.00156
-1.14639 -18.8464 -1.16066
-1.63812 -19.4165 -1.73725
-1.99224 -19.2002 -1.09312
-1.4305 -20.2203 -0.294204
0.607281 -19.878 1.16378
1.7641 -19.4151 0.0628328
-0.444053 -21.6495 1.3173
-0.0647174 -21.3093 1.57783
-1.30843 -22.4937 0.0104666
-1.44494 -22.6061 0.383677
-0.20566 -19.8615 -1.28588
-0.933082 -20.5459 -0.475717
2.10647 -19.102 -0.979463
1.45501 -19.2731 -1.08817
1.19014 -22.361 0.509491
0.452219 -21.7115 1.17869
0.736205 -23.0505 1.08073
-0.876413 -23.0212 0.93734
0.045199 -22.8894 0.350462
-1.07215 -22.7923 -0.0995848
0.7519 -22.832 -0.0464723
0.706228 -20.8783 -0.311942
1.0855 -22.1621 0.0177972
1.65652 -19.9606 -0.230939
-1.53005 -19.1753 -0.227097
-0.956211 -19.1643 0.665098
-0.745085 -18.8054 0.365914
-0.876491 -20.3274 0.848252
-0.984762 -19.6461 0.829645
-1.31628 -19.9967 0.301379
-0.213046 -19.0488 1.25629
-0.6473 -19.31 1.17342
-0.317804 -19.6083 1.33148
-0.287193 -18.5052 0.525533
-0.587166 -18.564 -0.40643
0.216544 -19.052 1.25574
-0.00337873 -18.7259 1.06421
0.724622 -18.5856 -0.405492
0.278136 -18.5559 0.519418
0.85176 -18.8879 0.218594
-0.536107 -18.298 -0.820836
-1.18905 -18.7881 -0.975753
1.47891 -18.6225 -0.87294
0.518476 -18.3657 -0.758692
-0.900553 -19.0645 -1.22162
-0.10048 -18.6273 -0.962069
0.566874 -19.031 -1.10196
-1.74077 -18.7435 -1.37044
-1.78333 -18.9581 -0.852132
-1.27448 -19.2939 -1.40843
-1.50716 -19.0182 -1.75443
-1.91567 -19.5642 -1.28388
-1.96494 -19.3234 -1.71373
-1.78529 -19.5519 -1.57222
-1.98235 -19.3018 -0.470367
-1.6708 -19.9439 -0.710741
-2.00062 -19.657 -0.688196
-1.76507 -19.7709 -0.265102
-1.2703 -20.6577 0.143224
1.02566 -19.2082 0.502373
1.71592 -19.0175 -0.168651
0.28931 -19.5908 1.34035
0.611197 -19.2736 1.13379
1.48719 -19.8462 0.242907
1.08587 -19.632 0.65869
0.903996 -20.2271 0.753161
-0.240399 -20.576 1.25539
-0.0177857 -20.0071 1.34841
-0.990685 -21.3515 0.918239
-0.475889 -21.0279 1.18931
-0.0826707 -21.5919 1.89727
-0.227065 -21.4652 1.79704
-0.237194 -21.7671 1.72123
-1.44457 -21.9038 0.211981
-1.35051 -21.7985 0.519974
-1.15115 -20.8905 -0.264917
-1.38565 -21.6994 -0.0400483
-1.72378 -23.0082 0.218327
-1.50231 -22.7519 0.130421
-1.67599 -23.0175 -0.0673226
-1.44768 -19.6313 -1.2822
-1.35108 -19.9661 -0.879051
-0.218456 -19.6229 -1.49527
-1.17393 -19.5113 -1.26459
-0.691384 -21.4582 -0.25302
-0.821651 -19.9405 -0.932517
-0.199254 -20.451 -0.654741
1.50965 -18.9245 -1.24525
0.656214 -19.362 -1.13733
1.89101 -18.7338 -0.733888
1.80196 -18.6751 -1.22929
1.66901 -19.4408 -1.02946
1.89258 -19.1451 -1.31919
1.97115 -19.4091 -0.98292
1.26474 -22.9783 0.307729
1.08083 -22.7777 0.747387
1.122 -23.1232 0.569924
0.917538 -21.3492 0.86492
1.05771 -22.173 0.900803
1.1819 -21.5877 0.567868
0.358058 -22.5582 1.05708
0.742353 -22.4807 1.04405
0.102452 -21.7686 1.53327
0.536399 -23.1473 0.720699
0.911498 -23.1548 0.0995253
-0.26626 -22.3669 1.01241
0.170165 -22.8521 0.902682
-1.05229 -23.1431 0.12004
-0.633452 -23.0858 0.655069
-1.31401 -23.1307 0.529911
0.681213 -23.0175 -0.070118
1.08884 -23.1179 -0.163217
-1.35232 -23.0954 -0.280603
-0.822499 -22.8579 0.0333006
0.323301 -22.2567 -0.0331979
-0.0727185 -22.5083 0.0907195
-0.622163 -22.2457 -0.0962273
0.922758 -22.7264 0.0153675
1.16805 -22.9055 0.0824827
0.370163 -21.5744 -0.212338
0.699245 -22.1886 -0.0947815
1.06944 -20.6468 -0.179999
0.944043 -21.7733 -0.127759
1.23957 -19.9899 -0.609411
1.12274 -22.3862 0.253752
1.75575 -19.8539 -0.555816
1.15934 -21.2365 0.0289641
1.22738 -21.5678 0.261781
1.37102 -20.2196 0.0919557
0.0939777 -21.4516 1.69751
0.431621 -20.9269 1.13324
0.194726 -20.4792 1.26506
-1.35755 -22.8514 0.652096
-0.783738 -22.4338 0.913578
-1.20248 -22.2353 0.761628
-0.967311 -22.2052 -0.142242
-1.31061 -22.8497 -0.132299
-1.14248 -21.8167 -0.182337
1.11678 -19.7049 -0.865587
0.283347 -20.0662 -0.904895
0.467541 -19.661 -1.22175
1.93005 -19.6563 -0.113976
2.07115 -19.5252 -0.555912
2.04515 -19.2497 -0.372556
-1.40983 -19.0139 -0.385056
-1.09147 -19.0704 0.0631122
-0.978161 -18.9089 -0.165469
-1.26483 -19.3812 0.344396
-1.20601 -19.2221 0.222181
-1.58172 -19.3303 -0.0576342
-0.633962 -18.7739 0.702243
-0.866096 -18.9756 0.548381
-0.72424 -18.9736 0.846338
-1.05237 -20.6904 0.665238
-1.06365 -20.1501 0.615749
-1.1542 -20.4807 0.431711
-0.826448 -19.7508 1.05625
-0.949398 -19.9243 0.869474
-0.763163 -20.0794 1.04607
-1.45827 -19.7271 0.189789
-1.15435 -19.8232 0.541038
-1.22857 -19.5907 0.449413
-0.0918723 -19.2582 1.33145
-0.287528 -19.3213 1.31245
-0.140445 -19.4836 1.38727
-0.583335 -19.0413 1.08789
-0.435358 -19.1659 1.22922
-0.329293 -18.9151 1.15105
-0.508808 -19.7524 1.2747
-0.504635 -19.4351 1.26666
-0.671423 -19.5793 1.1986
-0.991286 -19.4054 0.764992
-0.84149 -19.4664 1.03761
-0.803764 -19.2092 0.961354
-0.644235 -18.6984 0.0625197
-0.884516 -18.7322 -0.4636
-0.398292 -18.6618 0.779209
-0.530051 -18.6185 0.483198
-0.333952 -18.5182 -0.313973
-0.397625 -18.5605 0.15801
-0.150434 -18.4812 0.201
0.0832797 -19.2567 1.33085
-0.00531225 -19.0108 1.26494
0.260931 -18.7349 1.03328
0.111126 -18.8374 1.21446
0.351615 -18.9184 1.14435
-0.126606 -18.8218 1.23504
-0.242289 -18.7446 1.04836
1.17702 -18.7423 -0.500056
0.784157 -18.768 -0.0706645
1.27449 -18.8592 -0.306306
0.135426 -18.4931 0.199358
0.44227 -18.6013 0.123547
0.358159 -18.5407 -0.289883
0.656891 -18.7942 0.670281
0.554072 -18.6719 0.449838
0.406539 -18.6725 0.786301
-0.131333 -18.6126 0.827706
0.135819 -18.6141 0.830029
-0.00633977 -18.4949 0.546622
-0.815609 -18.5121 -0.713162
-1.20568 -18.8181 -0.743627
-0.29488 -18.414 -0.597814
-0.575244 -18.3527 -0.672433
-1.17311 -18.8095 -1.09199
-0.78108 -18.4006 -0.868522
-0.728974 -18.423 -0.986431
1.50979 -18.6562 -0.70226
1.04682 -18.6354 -0.663725
0.772355 -18.5483 -0.88375
0.922274 -18.5733 -0.774169
1.37282 -18.6766 -0.982626
0.64341 -18.4078 -0.608234
0.250497 -18.4582 -0.56174
-0.518136 -19.2696 -1.28357
-0.158968 -19.0524 -1.21053
0.128025 -19.2763 -1.35443
-0.638308 -18.5879 -1.0537
-0.472276 -18.7868 -1.11344
-1.06927 -18.9243 -1.21086
0.976591 -18.8631 -1.00221
0.274663 -18.8022 -1.04974
0.574928 -18.6022 -0.986352
-0.0619707 -18.4742 -0.733621
0.28689 -18.4841 -0.875044
-0.393752 -18.3848 -0.94123
-1.57634 -18.811 -1.0018
-1.52523 -18.9388 -0.678391
-1.51356 -18.6575 -1.40251
-1.56525 -18.6974 -1.23972
-1.94331 -19.0165 -0.976588
-1.81283 -18.7926 -1.12736
-1.96155 -18.9484 -1.26403
-0.679051 -19.3738 -1.26763
-1.17154 -19.1929 -1.35545
-1.61158 -19.2988 -1.79413
-1.44497 -19.1867 -1.64772
-1.50515 -19.3354 -1.63785
-1.34496 -19.0458 -1.50307
-1.42641 -18.8588 -1.49056
-1.78569 -19.6665 -1.21041
-1.86733 -19.5504 -1.5161
-1.72099 -19.6376 -1.30639
-1.9789 -19.2329 -1.42525
-1.97232 -19.4642 -1.54588
-1.98817 -19.4273 -1.22763
-1.75698 -19.5133 -1.69651
-1.90974 -19.514 -1.71717
-1.77218 -19.4099 -1.78903
-1.6275 -18.8593 -1.59428
-1.73433 -19.1521 -1.75602
-1.88591 -19.0142 -1.54731
-1.75913 -19.0396 -0.513508
-2.03415 -19.2604 -0.754183
-1.96187 -19.084 -0.618583
-1.85012 -19.2009 -0.363015
-1.78442 -19.4139 -0.26133
-1.69783 -19.8533 -0.944029
-1.86127 -19.7493 -0.990512
-1.84378 -19.8473 -0.523922
-1.9019 -19.8146 -0.738157
-1.56754 -20.0568 -0.501491
-1.98156 -19.6201 -0.963016
-2.06449 -19.4404 -0.857358
-1.32242 -20.2398 0.155845
-1.24743 -20.8602 0.403264
-1.70329 -19.638 -0.106448
-1.54998 -19.8652 0.00690454
-1.31949 -20.4316 -0.0822675
-1.50909 -20.0482 -0.107881
-1.69164 -19.9126 -0.341006
-2.06049 -19.4766 -0.605041
-1.97261 -19.7279 -0.446432
-1.93783 -19.5519 -0.358703
1.36817 -19.0081 -0.100243
1.58502 -18.848 -0.40053
0.73417 -18.9741 0.807159
0.938979 -19.0238 0.394832
1.78216 -19.2143 -0.0340652
1.44787 -19.1755 0.0476634
1.47572 -19.3592 0.175192
0.127765 -19.4779 1.38744
0.276739 -19.31 1.31419
0.617522 -19.5587 1.15384
0.458733 -19.4115 1.2606
0.456866 -19.7234 1.27286
0.438922 -19.1346 1.24296
0.56442 -19.0346 1.06458
1.26688 -20.1627 0.341186
1.21179 -20.0084 0.488055
1.03043 -20.4547 0.539361
1.44062 -19.5467 0.307705
1.34848 -19.7501 0.404958
1.63854 -19.6182 0.124713
0.763407 -20.0438 0.9923
1.01197 -19.8833 0.714212
0.800848 -19.7347 0.974686
0.797997 -19.183 0.908108
0.808227 -19.4447 0.947219
1.09371 -19.4121 0.597292
-0.15952 -19.7931 1.38185
-0.0101511 -19.6345 1.39705
-0.471896 -20.13 1.26315
-0.32709 -19.9626 1.31062
-0.0440659 -20.7526 1.28558
-0.15317 -20.2958 1.29015
-0.120486 -21.0591 1.36948
-1.15939 -21.1307 0.747355
-0.934998 -20.9246 0.891879
-0.420177 -21.4215 1.34593
-0.719384 -21.1812 1.08726
-0.727101 -21.5304 1.07684
-0.703254 -20.618 1.01024
-0.566272 -20.3398 1.13914
-0.0779929 -21.7653 1.87798
-0.172413 -21.6927 1.89704
-0.152593 -21.8064 1.7474
-0.137502 -21.4167 1.75377
-0.16552 -21.5175 1.90045
-0.0774562 -21.4504 1.86329
-0.300204 -21.709 1.55794
-0.246372 -21.6185 1.82681
-0.286653 -21.5489 1.64521
-0.331237 -20.8267 1.22988
-0.275066 -21.361 1.50961
-0.186702 -21.262 1.49402
-1.35772 -21.3328 0.413824
-1.30418 -21.2693 0.586375
-1.31946 -21.1567 0.0467552
-1.3618 -21.3036 0.220333
-1.39132 -22.2007 0.459478
-1.43087 -21.8956 0.349887
-1.411 -22.2939 0.299937
-1.43203 -20.0404 -0.751366
-1.27236 -20.3698 -0.414632
-1.33568 -22.1342 -0.00554987
-1.26979 -21.4241 -0.146081
-1.28498 -21.8965 -0.116976
-1.22687 -20.5786 -0.239921
-1.25934 -20.8357 -0.109777
-1.74473 -23.1085 0.145324
-1.79257 -23.0419 0.0593562
-1.73876 -23.1041 -0.0353485
-1.51415 -22.7216 0.233136
-1.68701 -22.9161 0.144124
-1.61392 -22.8501 0.309995
-1.51669 -22.8682 -0.057778
-1.63793 -22.9256 0.0336014
[...]
POINT_DATA 2562
SCALARS Mean_Curvature double 1
LOOKUP_TABLE default
-0.158581
-0.107268
0.75164
2.12787
4.99448
1.36098
-0.374916
4.14119
1.88064
-0.316367
5.4294
0.348462
1.51994
2.97667
3.51078
1.47819
1.40527
0.825828
1.23305
3.34524
0.278152
0.108406
1.06082
3.86864
0.421482
0.743249
-0.435219
-0.589972
2.19344
-0.426276
0.936308
0.0885387
2.71688
-0.775062
12.9826
4.54188
0.170429
1.77984
1.62346
-0.221697
2.37693
2.85483
-0.314099
1.42009
-0.243457
-0.242515
0.0511998
0.901787
1.21178
1.95478
-0.449999
5.14551
-0.222441
1.2872
-0.974582
0.251285
0.875641
-0.11735
7.3712
0.339509
0.870593
2.29404
-0.638011
-0.709939
0.273341
2.88597
-0.726328
0.355781
11.1887
3.3875
9.77001
3.9345
0.642696
3.47431
-0.454457
0.688244
-0.0799121
0.0249804
2.40341
0.0149879
1.70207
2.38858
0.78654
-0.137475
0.121674
0.482099
1.18981
-0.393954
8.14347
9.79274
7.46873
2.5254
1.41192
-0.286229
8.98453
2.78081
0.367269
0.425891
0.490342
0.28296
8.10069
0.172963
0.235587
-0.581714
-0.0598711
0.635616
0.344666
1.78728
6.44446
0.17433
4.73763
1.61316
0.287642
-0.0145952
5.00167
1.31603
5.07826
2.87356
0.640322
0.638052
0.944557
1.7058
0.152812
-0.746194
0.664735
1.50133
3.2335
3.7189
6.24826
10.9784
24.3575
0.623721
-0.0262441
-0.890195
0.471171
-0.263366
2.88677
0.235871
1.58582
-0.529028
1.2841
0.606741
-0.137867
1.66482
0.18844
0.653591
1.13124
7.00157
-0.0536682
2.84698
0.359951
0.0814894
0.993836
1.17919
1.42285
4.02317
0.234789
-0.113758
1.57553
8.31238
4.07064
-0.389651
0.791376
-0.636828
-0.58395
2.24628
-0.0482879
3.84044
1.49136
0.621043
-0.740155
0.0152198
-0.0463175
-0.699625
1.27542
1.39471
0.113658
1.56805
-0.299523
0.517901
-0.128261
0.180647
1.94794
4.41621
2.59911
-0.567167
0.101705
0.472681
1.15442
0.297018
1.69347
0.0503436
0.124704
-0.741058
1.94582
1.3581
-0.750499
-0.0880318
1.16412
-0.140937
0.377674
0.747808
7.12731
-0.789863
10.1777
0.44631
-0.693229
-0.616352
-0.153914
1.41723
0.973877
-0.823736
2.26469
1.50822
0.686006
0.0029444
-0.0748973
1.58758
1.01641
-0.0360529
2.46522
4.68266
0.97277
5.47139
8.77096
0.250757
1.31396
2.15319
1.77597
1.29625
3.93924
-0.241363
0.422116
-0.112798
0.872016
0.717435
0.360769
0.64032
-0.0314901
-0.15809
1.45633
-0.565001
1.51167
8.96343
0.474863
-0.488588
10.1991
1.96854
3.43442
5.94585
5.04132
0.645876
0.0333626
6.41755
2.08492
1.6604
1.31617
1.23162
0.417404
2.47274
0.401263
0.829974
6.79257
1.98454
6.30395
17.4737
3.80414
0.0483208
1.23175
2.1784
2.69099
-0.507473
8.26737
4.6733
-1.56667
3.08947
1.88746
0.460567
4.68826
1.14018
3.2471
2.92754
0.365355
0.266047
3.68102
1.24332
0.115874
0.725385
0.472949
5.40853
8.62595
4.6274
0.109455
-0.0102939
0.0767639
0.859183
0.139594
-0.198463
-0.257436
1.41184
0.904859
0.893461
2.65647
2.59552
6.38887
-1.66822
0.496192
0.832954
-0.766768
2.78466
0.350918
-0.700755
1.67849
-0.175935
0.850051
2.85272
0.989671
1.70216
2.75918
0.952564
3.63217
0.256784
-0.429675
0.696261
-0.214323
1.90867
0.655072
0.409637
0.462357
0.146899
-0.0198712
-0.250122
20.986
9.88945
3.92105
3.33628
10.4101
18.647
1.43737
4.33745
1.61349
-0.158905
1.94255
2.55218
0.985919
2.68406
1.29693
1.23797
-0.0180346
2.1069
1.25913
0.565008
-0.34513
3.41253
-0.226556
-1.57491
-0.326128
-0.170199
9.62025
6.91108
14.5231
1.26469
7.70721
2.07071
3.27446
-0.0627921
-0.235174
-1.72251
0.534043
0.240413
0.486627
7.44216
1.38823
3.01136
-0.52979
2.37381
0.305393
7.36733
0.73004
0.555236
0.60639
2.22911
0.291017
0.894738
0.0325536
-0.29782
0.114953
-0.503957
-0.196197
-0.0997969
0.396345
-0.309479
0.241604
0.356002
0.116019
0.488911
0.247175
3.36244
2.26755
0.15876
-0.177107
-0.00847318
0.269718
3.92377
10.9876
1.43068
0.727004
4.56347
12.8463
7.11668
1.80613
4.06446
2.31482
1.46015
4.42343
0.484712
2.12766
4.37128
9.73847
8.65352
10.0174
3.4985
42.3011
11.0939
8.98107
-0.128078
2.40257
0.101764
7.89346
1.00194
1.29167
2.34702
1.37373
1.69601
0.829419
-0.0423816
-0.197607
0.269612
0.327278
3.31346
0.386226
-0.290534
3.36331
-0.746477
0.0857183
3.10536
0.395974
0.699332
0.879194
0.271178
2.00387
5.57474
0.300231
9.94655
0.867345
0.630671
5.79157
0.73287
1.67345
0.599231
0.0718271
0.753099
-0.725572
0.362848
0.171765
11.1889
0.31741
0.665241
1.52429
0.747171
2.41415
1.15804
8.28831
0.902838
5.73819
3.92498
0.932985
0.947404
3.56045
3.27072
1.65558
2.64345
1.9653
17.5828
3.22931
3.73787
2.63528
2.64333
10.2293
5.32269
8.82864
-0.0575262
-0.300988
-0.483735
-0.167146
-0.0893973
-0.0624402
-0.0389949
1.37037
0.149837
0.19195
-0.419458
-0.0867058
-0.179933
5.6831
1.50988
1.3047
1.11168
-0.00828137
3.79654
0.459345
-0.263694
0.130304
0.616591
0.692196
0.394285
0.303635
-0.0475521
4.2848
-0.0866264
2.479
2.83058
1.37871
5.99664
-0.492776
-0.234449
0.893908
0.426729
1.65598
1.27345
0.805258
1.38049
-0.250757
0.100517
0.166238
3.81516
0.28703
0.471836
0.00554321
2.81496
-0.0686012
6.23866
0.916423
-0.346361
2.27684
1.84896
0.811708
-0.0748146
-0.785343
2.93871
4.67086
1.26733
3.0185
1.83141
8.93775
4.74346
2.63642
0.113253
0.045645
-0.0396639
0.101618
-0.486329
2.33883
-0.307966
0.0925927
-0.31581
2.6128
0.852963
0.321457
0.950184
6.66192
4.06353
0.166031
2.93886
7.17119
0.525647
-0.242931
0.212141
-0.113321
1.68139
1.46203
0.76576
5.19086
-0.0266682
-0.177409
0.44485
2.84085
3.16263
0.31518
0.391824
1.45556
0.828628
1.14343
11.0137
0.549072
10.7694
3.80171
2.94308
-0.365622
-0.266633
-0.549731
-0.353833
3.82371
-0.310497
0.274706
0.314819
1.77212
-0.512725
0.624511
0.66902
0.277331
0.337361
1.33133
-0.349389
-0.226723
-0.0232781
4.95283
-0.41515
1.29948
3.49679
3.28738
-0.50069
1.02131
-0.524135
1.13372
3.02007
0.766173
2.93625
0.788399
0.101235
3.68247
-0.458934
1.61004
0.126192
2.53739
3.69147
8.51737
-0.419985
2.06715
0.140397
2.8132
6.73507
-0.0923465
-0.727496
-0.466376
-0.464637
-0.781679
1.13983
-0.53257
-0.624272
-0.264149
2.33851
0.771475
4.00323
0.522609
3.00791
0.110578
-0.0453664
1.38434
0.727232
3.62113
1.47016
2.71595
0.31638
0.989521
0.287321
0.745341
1.68274
2.7109
-0.319315
0.329565
0.367107
0.328386
-0.0340816
0.306356
0.0798917
-0.752664
-0.633301
0.0344892
-0.522341
-0.247998
0.469602
-0.139579
0.275814
0.468363
3.17126
2.09196
0.850334
0.737189
0.65092
1.29387
0.757944
1.01998
0.925274
0.630793
1.23784
1.3526
0.0474285
-0.173377
0.126227
0.108274
-0.523879
4.26049
4.55645
1.10792
-0.465865
2.24992
-0.738346
2.87678
5.4247
-0.74072
-0.503702
-1.5512
1.61791
1.87328
0.328521
1.64952
0.816894
1.28203
3.85375
4.21681
3.9898
1.73372
-0.761947
0.103505
-0.509987
2.0261
4.39119
6.6523
0.82065
2.08888
-0.380172
0.30198
0.509336
0.888345
0.395588
-0.0901109
0.97642
3.59237
1.14926
0.590445
2.25928
1.78895
2.18632
4.63693
1.1088
0.130171
3.38686
2.65024
2.42122
-0.541201
-0.716434
0.373401
-0.203071
-0.258827
-0.322205
-0.41082
0.849827
0.626593
2.58924
1.96248
-0.156913
4.07943
4.01604
0.811328
1.87879
1.07575
0.0509095
-0.0173193
-0.965847
1.10173
1.41874
3.93835
4.20178
-0.947189
0.20658
4.22713
-0.310561
0.543521
-0.41217
-0.737438
-0.383421
0.329994
2.4258
5.02343
2.4636
5.07562
0.241205
-0.397352
1.45694
1.15796
3.75433
4.83138
2.89465
3.0538
8.7588
-1.02588
7.0965
3.03891
1.9553
9.59844
0.602613
-0.0462966
-0.32302
-0.251098
-0.725566
-1.14497
0.240533
-0.77968
-0.607304
-0.600688
2.06738
-0.097381
-0.18482
-0.201262
-0.344411
3.31377
-0.560409
-0.0429083
-0.450913
5.31987
0.584482
0.180082
0.819657
1.15777
0.781514
0.403959
4.09048
1.32953
-0.374661
1.61712
0.318499
-0.50519
2.27871
5.30051
1.69373
-1.78426
8.89774
-1.41331
1.4377
3.9837
2.43812
1.14834
1.9344
0.999806
0.943938
3.22992
-0.488275
4.48004
4.3909
-1.02046
-0.0650371
0.955981
0.107452
0.0825552
0.462386
1.40569
-0.943271
-0.320028
8.05409
3.20868
1.7653
1.07186
3.04591
1.16664
2.1605
1.8631
2.1213
2.40638
0.72201
15.9763
7.96307
8.41392
2.62447
4.94269
4.91921
0.332242
0.288682
0.577944
0.521577
0.347771
-0.686366
0.774671
1.17457
0.468244
1.19698
10.1079
1.8013
4.0662
1.20639
0.0121817
0.422352
-0.518183
-0.954249
1.29732
0.720622
7.37478
1.5838
5.25843
1.78268
7.12587
2.05628
1.30553
0.826901
1.29807
-0.00293333
0.181217
0.124904
0.378277
0.13494
0.217009
1.50854
1.05581
1.10039
0.802627
0.629276
2.30219
0.0294361
0.49917
0.0432234
0.290782
0.54733
0.78491
0.109563
0.322661
-0.0359621
0.420144
2.56156
-0.972169
-0.279611
-0.775121
-0.484529
-1.18831
4.99044
-1.13839
2.44012
4.60951
1.65752
-1.42219
6.4328
10.3194
6.26573
1.75982
0.415112
7.26537
1.69737
3.90818
-1.55827
-0.0678282
3.67593
-0.270032
-0.0152791
0.143167
-0.380664
-0.500143
-0.849074
-0.607143
3.1224
3.07636
9.28227
11.067
10.9753
1.71106
0.904427
1.90517
6.08536
0.667768
3.63265
5.94162
-0.325007
2.1249
1.43092
3.04717
1.10071
0.883806
6.70865
1.56099
0.569871
0.252954
-0.406634
-0.156923
-0.616242
0.00106445
12.2011
4.11699
3.15708
7.32481
2.55847
4.8021
1.00325
1.83489
1.15174
1.3409
2.26121
0.304813
0.796832
2.01648
0.895263
3.10348
1.09189
2.79221
0.669368
1.83747
0.519837
1.24503
3.26597
1.53421
0.661937
1.9798
1.91512
3.40134
0.431872
0.748589
0.415517
2.26519
0.826841
2.02372
4.44034
3.55121
6.94342
4.17819
12.0271
5.85311
4.5958
13.2006
6.28594
4.57853
11.3906
14.0878
9.26913
12.2254
7.16888
6.95432
11.6823
1.15698
9.85969
3.46959
20.8386
9.02404
0.562271
5.32067
5.73946
0.884772
-0.466372
9.13946
2.19058
5.25875
7.66367
-1.66047
4.63533
0.855512
0.549897
0.0332221
2.12249
0.00949763
-0.330077
1.6575
2.46058
0.102534
0.274714
5.24225
2.252
0.310211
3.99825
0.403419
0.365609
5.97692
-0.0608742
11.7433
7.60601
8.51285
0.850107
5.45154
2.29693
2.18566
3.31046
0.645151
0.862278
2.45156
0.910067
2.79075
0.0767577
6.89879
1.88564
6.00679
2.92775
0.717611
-0.168445
0.151733
-0.393551
4.76759
1.9637
3.99015
-0.576973
0.0522434
4.11443
4.85561
3.32971
-0.0309401
0.626942
0.62336
-0.522957
0.0718765
-0.283963
-0.169428
1.3777
2.2776
0.444485
1.14451
0.68703
1.30366
0.45345
0.178573
0.678472
0.755405
0.290076
0.258325
-0.600117
0.787092
1.39867
0.99771
0.56287
1.52703
0.461415
8.2518
1.33656
7.72864
9.33711
-1.13574
0.394457
10.6042
5.0953
6.97517
1.89084
0.458979
5.19108
-0.0180819
-1.551
0.208212
-0.591841
6.96846
0.147269
-0.392678
-0.155064
-0.761615
-0.0223511
0.0700174
-0.170386
2.05858
2.23835
1.2851
-0.216493
1.79146
-0.112271
1.50257
0.0922245
4.82197
1.01169
1.08438
2.53842
-0.0491278
6.12802
0.33769
-0.321414
-0.00226441
-0.56975
-0.412082
0.16169
1.02554
4.29509
0.388037
6.48222
3.76086
1.57787
-0.606742
1.11904
1.45726
1.65765
1.52764
1.54023
1.01679
-0.236913
2.17883
-0.720853
3.46209
1.66854
2.75238
2.54647
0.464045
6.6402
2.55792
-0.108414
3.61472
-0.139509
-0.727832
-0.175158
-0.316573
1.46552
0.185006
2.11452
-0.642236
0.0011145
-0.257589
-0.414648
0.0138178
0.455189
1.29786
1.88829
0.565314
-0.251274
1.82679
2.44704
1.47588
1.54602
0.897807
-0.289664
0.823504
0.598983
-0.453593
-0.0556313
0.0755945
0.447395
1.96365
1.369
2.55273
1.35848
2.85003
4.01898
-0.216111
0.458943
-0.278198
0.742454
0.661838
0.919767
2.17709
1.00741
0.535415
1.01191
1.91123
1.55132
-0.142424
0.101895
0.969486
0.753976
2.95123
2.49783
1.25407
1.30527
4.13016
5.46668
0.936036
0.967911
0.76278
0.0549039
0.172506
-0.866346
-0.117975
-0.668028
0.736393
0.373974
0.840715
0.198674
-0.451955
-0.378539
3.26374
-0.0035043
0.741769
-0.186454
1.07426
0.554481
1.5338
1.69831
1.15133
0.198585
-0.372475
0.370251
-0.599648
-0.563635
-0.128813
-0.377725
-0.268925
0.929089
0.590414
1.80547
0.858504
2.97143
-0.159083
-0.0519039
0.00523303
-0.0699904
0.120518
2.26993
-0.132981
-0.0371091
6.95644
9.17241
3.71341
2.86487
10.3836
10.0458
10.5765
16.578
20.2521
1.09337
6.21419
4.24814
23.1845
15.2693
10.8178
14.2329
14.6173
3.8826
0.685828
1.03263
0.792934
4.55559
2.07132
5.52739
4.96784
2.02144
7.8597
6.18887
13.1264
11.9252
1.20057
-0.451471
-0.0855433
-0.00719404
0.0242323
0.918164
3.57439
2.3178
0.862693
0.223855
0.832001
-0.501779
0.387551
0.680993
4.64465
0.127679
2.51314
-0.06772
5.63857
2.94265
2.46864
2.7226
3.0611
3.27635
1.62019
-0.643559
-0.130539
0.395699
3.282
0.309394
0.0582547
0.840179
0.00284277
0.657199
-0.129724
-0.225357
3.49494
2.44134
5.96549
2.25218
5.63304
0.800847
0.241482
-0.0282078
4.6692
1.89658
-0.245413
-0.323474
-0.30415
1.73243
1.02349
5.05533
0.218783
7.65666
3.71792
-0.318844
-1.44656
0.284074
18.1194
-0.410945
0.228444
0.0510749
-0.121339
-0.14906
2.27473
-0.374646
-0.262388
-0.309401
-0.327438
0.0655946
1.31702
8.32228
3.16912
10.2574
28.7288
17.3573
15.9027
29.1925
6.95851
-0.369751
4.13381
2.12339
0.830011
0.310776
0.836319
11.1078
3.67481
6.21186
0.0840142
0.2821
-0.617227
-1.55441
1.08564
1.99305
0.556399
1.03397
0.772955
1.86933
3.26249
-0.313905
-0.00315748
16.7515
2.6913
0.807897
-0.867479
0.27931
-0.468083
-0.240409
1.62352
0.7125
-0.125397
2.36221
0.974556
-0.398741
-0.43861
3.88787
0.114228
2.37258
1.26732
6.52651
1.89906
0.385527
1.5011
2.13804
5.80325
1.36084
1.15052
0.47438
2.21918
0.72563
1.21744
2.40896
-0.403447
-0.158939
-0.501386
1.73066
0.384948
-0.262374
1.17141
1.18185
0.859815
0.550129
0.356764
1.30264
5.65697
1.79738
1.58388
1.82441
5.04462
0.698863
-0.0788961
1.357
1.59705
3.8516
-0.336676
0.514866
-0.573113
3.90158
1.4077
1.47435
0.998282
1.56745
0.366934
0.784955
0.51319
0.590481
0.218457
0.709068
-0.146136
-0.0935024
-0.27216
-0.242345
-0.304193
-0.0717543
0.0677061
0.299225
-0.00657151
0.190026
-0.122572
-0.401434
-0.291257
-0.334691
-0.351716
-0.309123
-0.516422
0.234348
-0.454959
-0.200202
1.30528
0.39149
0.924861
-0.08655
-0.0856581
-0.306036
-0.396014
-0.154841
-0.430661
-0.336052
-0.179573
-0.0934865
1.16516
0.316495
0.73927
0.825592
0.395513
0.523423
-0.424849
-0.36027
-0.654409
0.210895
-0.223776
0.690671
0.520973
0.0151155
0.0169823
0.36921
0.335247
0.489435
0.690521
2.85147
0.293018
0.0737392
0.920958
0.376848
0.204407
1.77694
0.754984
0.738357
0.879843
1.3819
-0.341766
-0.0331495
-0.0566427
0.0656961
0.251504
-0.609511
-0.108944
-0.379509
0.304534
0.25024
0.436251
-0.544262
0.0818285
-0.675223
0.351749
1.90287
1.32615
5.98185
8.4565
7.49538
4.69582
6.30984
3.52045
3.46396
1.86079
1.78739
5.52865
1.63492
0.673747
0.759047
2.97072
3.92443
2.86395
1.97802
3.35092
3.04794
3.27086
0.871157
3.48356
9.86837
2.10172
1.13318
2.33921
2.41729
-0.415525
0.0894554
-1.36957
-0.773732
5.51633
0.451758
0.527201
0.307892
3.18038
3.7131
5.5765
0.427046
0.96051
2.31503
3.24526
9.01765
2.9358
1.44028
6.61283
3.84847
3.08747
16.6035
4.17495
2.82629
2.07506
3.87696
15.137
6.07388
13.7244
7.35981
2.58349
2.51421
11.747
3.63865
2.57611
2.20808
0.422868
0.575965
0.423806
3.3725
9.79525
7.49313
5.48127
3.10701
32.3948
28.3613
9.82436
2.46481
28.6609
13.7244
5.89001
15.7639
10.8241
2.11501
-0.834305
-0.12873
1.1476
1.61784
-0.904424
1.9125
4.00179
0.687161
11.4973
3.80219
1.63022
17.692
10.0975
5.24959
1.5347
2.55203
-1.56456
0.710846
0.788253
0.744053
0.636341
2.59238
0.512358
0.881805
1.58208
1.41321
3.08412
1.48389
1.47505
-0.0804926
-0.386311
-0.560077
2.39192
0.400596
5.01733
0.524351
-0.342818
0.453344
1.61064
4.96578
2.55509
0.611601
-0.38196
1.1788
-0.637009
3.01363
1.10646
0.528293
0.353499
0.731316
1.40026
0.719366
5.18902
0.565298
-0.233815
0.275715
1.93964
0.457861
0.35052
-1.35683
1.03827
4.84069
-0.00600462
-0.0280879
0.966014
0.104541
-0.0903434
0.94407
0.28133
-0.336428
0.154677
0.209259
-0.327102
0.600709
0.725127
0.808783
0.349447
0.743719
0.605505
0.450074
5.79168
1.48345
-0.0180288
-0.490755
0.6096
0.968879
0.678905
1.15818
2.60211
5.99586
1.42596
3.91495
0.710756
1.55962
0.658988
5.68544
2.84553
6.47779
1.77576
0.921619
0.617968
1.00381
-0.0650169
0.209862
0.077106
11.9772
4.25688
0.77621
0.681828
0.9926
2.65613
1.22364
1.28951
1.95559
0.728423
0.384869
1.50521
1.59812
3.48237
1.78112
0.959467
0.525681
0.621818
0.441566
2.22845
0.524759
-0.440765
-0.0629413
0.20155
-0.167851
0.255425
2.32986
0.578698
1.31431
0.258088
-0.0652569
-0.349762
-0.189486
-0.0233628
-1.01
6.57318
9.15046
0.0536549
2.90434
3.00209
10.0087
0.42311
0.0585319
0.00407272
0.0823244
0.461761
0.565496
0.852401
0.554396
0.438061
0.485468
1.05502
0.629729
0.80598
-0.40356
0.600287
0.124845
4.83881
1.89338
1.38233
3.83642
2.84097
2.77791
18.9114
3.30729
18.2178
1.12124
1.56796
5.39614
7.79053
1.68129
1.79213
0.855912
0.938492
0.777403
8.77477
1.42898
13.4002
3.05468
4.09898
5.98218
1.73932
3.27052
0.885417
0.86793
0.75047
2.06747
1.16111
1.02906
1.31753
0.934438
1.46406
1.38462
21.3494
1.49021
-1.85535
13.4957
20.51
25.0521
17.9905
0.447932
6.5161
18.6361
5.08203
1.97963
3.22632
0.547171
1.71715
2.22421
2.94697
12.6628
6.24428
8.68609
10.4328
4.94385
21.651
0.492235
9.68719
4.87725
0.910599
0.541712
6.90448
1.95146
8.1426
0.683858
1.53532
1.75529
1.38699
1.87752
1.62521
1.12291
4.06127
14.7572
4.34274
25.8363
0.0666981
-0.726949
7.77678
1.30454
-0.145604
0.758664
3.05421
10.5837
8.4705
8.53821
-0.428241
-0.494218
-0.353883
-0.11097
-0.797273
-0.0777577
0.18292
-0.104288
0.103463
0.934075
-0.104094
0.105342
-0.0882938
-0.131389
-0.164071
0.0703945
-0.0522034
-0.0609755
-0.0388075
0.450355
0.139971
0.306881
0.675856
0.899885
0.0219426
0.287083
-0.0120825
-0.573176
-0.771676
0.000647054
-0.100544
-0.138528
-0.444583
0.140199
1.05007
0.42834
-0.0625551
0.0324774
0.0198313
-0.183185
1.96218
1.57556
2.1558
-0.0322958
-0.186481
-0.0608937
-0.74069
-0.282448
3.52171
1.73246
20.8413
6.48592
3.24902
3.58411
10.5984
1.55821
1.51076
2.10901
1.78044
0.512456
1.22196
7.88419
0.541064
0.284072
1.53818
7.36703
0.35528
1.07557
-0.145963
-0.33641
0.410438
8.42376
3.31425
9.0277
-0.283887
-0.185626
0.341114
0.0930311
0.0100859
-0.0102318
0.059255
0.571513
0.617578
0.114564
0.789455
1.14868
0.860759
0.501774
0.719279
0.701522
-0.0528437
0.611722
0.101241
0.164111
0.582157
0.312737
0.673364
0.386096
0.605163
0.30557
2.01062
2.8525
1.88138
-0.4404
0.19761
-0.0469187
1.94632
1.94039
0.0724677
4.76266
2.91582
6.79476
1.99401
1.46801
2.09526
0.563724
3.24093
0.0324217
-0.496817
-0.159047
0.325396
-0.447938
-0.610295
-0.233888
0.888151
0.471569
1.36401
-0.291479
0.408264
-0.701879
0.142813
0.884688
0.118946
-0.311144
0.0151327
0.792599
1.0109
1.05742
1.33519
2.07549
3.7096
0.341738
0.799235
5.84245
1.22283
1.34916
3.04535
0.999159
8.85361
1.67576
0.609741
11.2912
0.763224
1.016
0.189219
0.368247
0.4784
0.241527
-0.480907
1.26983
-0.369066
1.31754
0.66724
0.587108
-0.114745
-0.371204
-0.128465
0.902824
-0.234025
0.751825
2.08625
1.15411
8.37778
5.30702
3.34729
2.17702
0.155249
0.395337
0.438549
3.82577
-0.723516
0.237837
-0.215636
1.975
1.64456
3.20011
4.39313
14.7225
-0.120428
1.96895
6.51655
11.2562
-0.046126
-0.14509
-0.293362
0.127489
0.262819
-0.492434
3.00735
1.55961
0.522163
-0.0227305
-0.537174
1.68291
1.01269
1.12413
-0.287335
0.620342
0.000841936
2.49318
0.403738
0.935971
0.871178
-0.25032
0.810366
1.90751
0.281472
-0.202899
4.1587
2.63982
2.88054
-0.0989356
1.66439
1.28462
3.12294
-0.475484
1.26088
0.0771561
2.00352
-0.148597
-0.189189
4.44302
2.64049
1.79444
1.60513
1.45031
1.35415
0.903002
1.09308
2.1581
8.86
2.13752
5.45446
12.7997
5.67914
0.480822
1.37427
8.78098
2.73284
4.56042
2.48243
2.71235
4.92065
1.00868
6.76417
16.9305
7.71452
4.48835
11.8711
6.32865
4.26264
2.59471
0.301397
-0.705141
-0.25579
1.12731
2.58323
1.4312
0.531949
0.0847141
-0.0341611
0.484582
0.136821
-0.320124
-0.403033
-0.437361
0.597069
0.164238
-0.372998
-0.273792
-0.0306492
-0.37139
-0.178088
0.378721
0.79683
5.25922
1.10173
1.67663
4.00263
0.547681
-0.641455
1.56678
-0.26513
-0.210265
0.217603
0.02004
2.6252
2.90167
1.23546
-0.179356
1.25265
1.74205
1.25711
0.524199
0.0680738
0.985522
0.406645
-0.417222
0.629568
1.52425
2.26529
0.910878
0.50659
0.700517
0.560751
-0.0135368
2.03371
2.24825
2.05314
0.368551
-0.349751
-0.364723
-0.543731
1.48702
2.83041
4.75125
3.97131
12.2012
8.60404
5.6574
8.40174
-0.771033
1.59208
1.09627
9.184
6.14192
4.39381
-1.0863
3.37066
-0.441977
3.01252
11.2154
4.82455
15.7734
7.11759
1.05397
3.21218
3.31367
4.57317
0.594403
-0.216026
-0.0160118
0.335455
0.0920601
-0.537521
0.134322
0.60866
1.4545
0.779201
0.347496
-0.168434
0.0419592
0.692084
0.202517
-0.0586762
0.42643
0.0443627
-0.327693
1.24406
0.998925
1.39863
1.62348
0.314544
-0.171795
0.581142
3.87285
2.19236
4.1348
0.0972332
1.1146
-0.285741
-0.368871
-0.0621284
-0.181611
0.373472
0.0622328