# vtk DataFile Version 4.2
vtk output
ASCII
DATASET POLYDATA
POINTS 2562 double
-0.188292 0.389127 -0.0582174
-0.0271557 0.384636 -0.0568026
-0.200245 -0.0219607 0.0057086
0.125498 -0.0156883 0.0114074
-0.0386602 0.04523 0.163918
-0.0927395 0.26366 0.0880302
-0.0392023 0.0704708 -0.133056
-0.163639 0.370013 -0.12996
0.121525 0.16851 -0.0616014
0.134957 0.161179 0.0879003
-0.208542 0.281777 -0.0781975
-0.283205 0.236269 0.133368
-0.273492 0.340717 0.0732871
-0.216371 0.283231 0.151718
-0.169756 0.35419 0.0682437
-0.0410638 0.312285 0.0141527
-0.0660164 0.447378 -0.0490912
-0.0268077 0.428253 -0.103028
-0.189478 0.422369 -0.168395
-0.197624 0.369861 -0.196822
-0.24385 0.393898 -0.122403
-0.284923 0.235361 0.0187113
0.0567591 0.220371 0.115853
0.0921054 0.25254 0.049535
-0.17091 0.128953 0.131069
-0.0434163 0.169065 0.162473
-0.227959 0.0816572 -0.0366021
-0.233748 0.0787347 0.0731193
-0.0788651 0.222159 -0.0942035
-0.142358 0.155713 -0.0977336
0.0627125 0.263436 -0.030231
-0.00724776 0.262347 -0.0660623
0.18724 0.0458967 0.0669336
0.0723703 0.106162 0.150185
0.0532378 -0.0180529 0.123798
-0.14353 -0.0192282 0.132476
-0.0375965 -0.0226813 0.00555352
-0.120067 -0.0164963 -0.104237
0.0444859 -0.0091917 -0.0923456
0.0560033 0.112964 -0.109708
0.172954 0.0526696 -0.0277334
0.151306 0.152528 0.0125868
-0.234397 0.358404 0.0229585
-0.223985 0.355255 0.0838871
-0.166858 0.373527 0.0127208
-0.252455 0.266578 0.150908
-0.249693 0.316896 0.132121
-0.279572 0.289532 0.110908
-0.15791 0.324339 0.0848913
-0.202196 0.328435 0.117911
-0.177847 0.284046 0.121792
-0.102092 0.412328 -0.0142906
-0.107644 0.422933 -0.0469969
-0.0497277 0.28428 0.0629745
-0.102716 0.353687 0.0178773
-0.0465307 0.432198 -0.0589607
-0.0658636 0.414658 -0.0314318
-0.0371917 0.359192 -0.0270632
-0.0868987 0.422825 -0.074777
-0.194603 0.408893 -0.126774
-0.0242346 0.417257 -0.0846195
-0.0430085 0.44713 -0.0839802
-0.181602 0.405693 -0.171163
-0.0711078 0.413561 -0.0882519
-0.0554349 0.403647 -0.0960297
-0.227185 0.432058 -0.164181
-0.233671 0.405923 -0.0985378
-0.183164 0.385379 -0.190701
-0.200774 0.423487 -0.196506
-0.232265 0.35431 -0.118944
-0.231924 0.401891 -0.170394
-0.215239 0.341432 -0.169992
-0.252715 0.34625 -0.00471954
-0.259273 0.243196 -0.0302924
-0.257119 0.311761 -0.0265448
-0.285056 0.304919 0.0527926
-0.284714 0.236024 0.0846484
0.0426177 0.279717 0.0482838
0.0353646 0.28357 0.00683777
-0.00143041 0.246895 0.112794
0.0282473 0.271291 0.0871622
0.122695 0.212006 0.0718698
0.084536 0.244667 0.0876712
0.0996876 0.195478 0.109042
-0.163893 0.232097 0.127007
-0.0650776 0.218536 0.119865
-0.234733 0.206519 0.132889
-0.210507 0.232872 0.153522
-0.0367517 0.114176 0.167473
-0.104781 0.15042 0.139386
-0.0897819 0.0679807 0.140775
-0.281633 0.154099 0.0454068
-0.257483 0.163831 0.0959906
-0.241284 0.156916 -0.0632281
-0.268011 0.151356 -0.0136018
-0.207613 -0.000377044 0.0424749
-0.242006 0.0712655 0.0121258
-0.217014 -0.00549709 -0.0235726
-0.184949 0.326218 -0.131972
-0.181544 0.231126 -0.0794298
-0.15236 0.344878 -0.113594
-0.180732 0.349755 -0.156904
-0.0839484 0.100923 -0.129893
-0.103583 0.197027 -0.0994338
-0.0460238 0.137962 -0.134089
-0.0266885 0.386635 -0.093848
-0.0630532 0.359846 -0.0832253
-0.025561 0.316157 -0.0357434
-0.0207747 0.380564 -0.0789281
0.0732998 0.203991 -0.0745157
0.0236532 0.266044 -0.0509907
0.104242 0.216045 -0.0457836
0.17089 0.0130908 0.0430195
0.139244 0.0139843 0.0902625
0.101375 -0.0216544 0.0666992
0.113933 0.134482 0.118357
0.135412 0.0667462 0.0981895
0.17198 0.0897103 0.0717402
-0.00183152 0.0147846 0.154417
0.068374 0.0386409 0.139964
0.024156 0.0742374 0.16601
0.0196653 -0.0220113 0.0819616
0.0590376 -0.0242352 0.00583194
-0.0807135 -0.00290773 0.164612
-0.0479028 -0.0216451 0.145354
-0.135346 -0.0252888 0.00568415
-0.0977934 -0.0241876 0.0864887
-0.177599 -0.0226452 0.0847294
0.0149332 -0.0231776 -0.063569
0.0839394 -0.0117339 -0.0415061
-0.16794 -0.0213063 -0.0484901
-0.0920141 -0.0230924 -0.0682192
-0.00447614 0.0298442 -0.112961
-0.0446772 -0.0153459 -0.105153
-0.0753609 0.0219621 -0.108624
0.107511 0.0270923 -0.0573181
0.164738 0.0130002 -0.016035
0.00879372 0.0924496 -0.132061
0.0581879 0.0472579 -0.106189
0.143261 0.107903 -0.041897
0.10781 0.0812303 -0.0761095
0.0962152 0.141845 -0.0886845
0.187927 0.0405114 0.0133006
0.147411 0.160954 -0.0262096
0.185682 0.0900156 -0.00897096
0.187462 0.0882387 0.0421035
0.150338 0.153872 0.0528502
0.0220278 0.137529 0.166536
0.070288 0.166144 0.141114
0.0107437 0.188444 0.145983
-0.19671 -0.00777285 0.115499
-0.157444 0.0133051 0.135692
-0.209345 0.0940452 0.110656
-0.115716 0.0408265 -0.0899091
-0.173466 0.0105284 -0.0497397
-0.19489 0.112654 -0.0742689
0.0427336 0.176321 -0.10041
-0.00272708 0.151917 -0.132231
-0.0420484 0.241029 -0.0839603
0.13346 0.209283 0.0340207
0.128624 0.212438 -0.0121183
0.0856674 0.258986 0.00313806
-0.208272 0.37467 -0.0260115
-0.205888 0.361842 0.0226592
-0.169572 0.38446 -0.0184165
-0.249678 0.349494 0.0799477
-0.233545 0.357309 0.0585886
-0.257396 0.352959 0.053476
-0.169181 0.360261 0.0422638
-0.203002 0.358772 0.0577455
-0.195786 0.356794 0.0819624
-0.26916 0.251727 0.140017
-0.26938 0.276929 0.136379
-0.28271 0.261164 0.126327
-0.234002 0.2994 0.141884
-0.252977 0.2914 0.145536
-0.235284 0.276395 0.151804
-0.278127 0.31855 0.0926269
-0.265765 0.305035 0.122601
-0.260736 0.328418 0.102852
-0.13594 0.295253 0.0834256
-0.169596 0.308947 0.105095
-0.14376 0.276943 0.101299
-0.186366 0.349565 0.100703
-0.179458 0.333237 0.106773
-0.165721 0.343553 0.0818094
-0.199109 0.285472 0.139995
-0.193323 0.309891 0.12356
-0.212348 0.307707 0.137661
-0.239155 0.341007 0.109935
-0.225633 0.323935 0.128337
-0.212615 0.345143 0.106036
-0.135305 0.408504 -0.0207318
-0.147721 0.399447 -0.0501616
-0.135122 0.376496 0.014978
-0.132159 0.39934 -0.00059676
-0.0823796 0.445949 -0.047968
-0.100764 0.422994 -0.0292352
-0.0766318 0.437583 -0.0353437
-0.0700662 0.27295 0.0767033
-0.113187 0.302588 0.0611265
-0.0719523 0.34209 0.00981546
-0.0877032 0.317215 0.0351449
-0.0406199 0.29503 0.0424638
-0.13398 0.331096 0.0539474
-0.138281 0.351054 0.038082
-0.0329878 0.411586 -0.0607406
-0.0440599 0.405548 -0.0485763
-0.0329337 0.375198 -0.0430706
-0.0630145 0.441137 -0.0367677
-0.0545452 0.429516 -0.0438535
-0.0529543 0.44584 -0.0522511
-0.0401177 0.334305 -0.00854567
-0.0522524 0.391793 -0.0325839
-0.058828 0.372035 -0.0145182
-0.104993 0.389224 -0.000822922
-0.0815222 0.387404 -0.0128118
-0.0784245 0.420595 -0.023337
-0.152056 0.39369 -0.0782135
-0.191661 0.400956 -0.0948432
-0.0732848 0.447734 -0.0635467
-0.0924393 0.427276 -0.0625222
-0.193779 0.418053 -0.152956
-0.158979 0.386517 -0.0985916
-0.159954 0.38275 -0.105055
-0.0235382 0.405134 -0.070613
-0.0345643 0.427542 -0.0750938
-0.0351423 0.440727 -0.0961318
-0.0325572 0.437089 -0.0854661
-0.0243724 0.425908 -0.0932408
-0.0419556 0.444053 -0.0721771
-0.0539588 0.447402 -0.0682426
-0.176071 0.387645 -0.154251
-0.151865 0.375381 -0.104331
-0.135494 0.367472 -0.0996092
-0.159452 0.382084 -0.105343
-0.157696 0.38023 -0.105436
-0.184253 0.418125 -0.174995
-0.0375988 0.420665 -0.105451
-0.0626757 0.410841 -0.0924518
-0.0429418 0.435305 -0.103836
-0.0589772 0.446382 -0.0811781
-0.0482204 0.444119 -0.0961399
-0.0786788 0.418076 -0.0834079
-0.215253 0.411367 -0.119193
-0.214121 0.397874 -0.0814531
-0.207725 0.432342 -0.172368
-0.213359 0.423974 -0.153402
-0.24319 0.40394 -0.112228
-0.232808 0.419585 -0.138188
-0.243037 0.417113 -0.147995
-0.179523 0.382529 -0.171902
-0.182938 0.403751 -0.187473
-0.199718 0.401526 -0.197124
-0.189393 0.406288 -0.19656
-0.18863 0.379993 -0.197101
-0.187746 0.421026 -0.192584
-0.197029 0.432061 -0.18805
-0.223929 0.323758 -0.109608
-0.220649 0.351615 -0.148291
-0.212693 0.324776 -0.132974
-0.243579 0.401907 -0.1541
-0.23672 0.384677 -0.15174
-0.243925 0.378951 -0.124463
-0.207567 0.357951 -0.18618
-0.218764 0.371388 -0.172176
-0.211636 0.387991 -0.186899
-0.215982 0.433772 -0.187142
-0.218469 0.416291 -0.192031
-0.235397 0.420547 -0.172328
-0.22674 0.379256 -0.0435059
-0.244169 0.37484 -0.0744031
-0.240661 0.380464 -0.0616773
-0.247293 0.354563 0.0105967
-0.274083 0.343392 0.0416526
-0.228823 0.259854 -0.0536736
-0.231877 0.304309 -0.0663346
-0.282057 0.272613 0.000573081
-0.261181 0.279017 -0.0278434
-0.276213 0.237752 -0.00690846
-0.239077 0.339217 -0.0773281
-0.244663 0.359758 -0.0811098
-0.284779 0.265172 0.102248
-0.284149 0.236426 0.113164
-0.283571 0.327223 0.0641314
-0.28409 0.299415 0.0829835
-0.285305 0.235109 0.0505856
-0.286094 0.269791 0.0692245
-0.286599 0.271433 0.0362584
-0.256469 0.333851 -0.017084
-0.27816 0.306337 0.0184726
-0.283086 0.331942 0.0313137
-0.0196159 0.311134 -0.0137616
-0.0225709 0.315739 -0.0231614
0.00296753 0.28775 0.0347265
-0.00650985 0.297674 0.00945192
0.0712736 0.272526 0.0322856
0.0424067 0.281104 0.0286069
0.0709612 0.272199 0.0512116
-0.0394919 0.254789 0.103408
-0.0198699 0.267601 0.0931067
0.0444882 0.248479 0.101495
0.0158206 0.25994 0.101062
0.028652 0.23427 0.114446
-0.00516245 0.278371 0.0793513
0.00264595 0.282188 0.0607993
0.131745 0.187256 0.0808282
0.114406 0.205456 0.0916115
0.119173 0.179895 0.100666
0.0915694 0.250124 0.0687441
0.104226 0.228861 0.0796271
0.110655 0.233005 0.0622445
0.0797317 0.209157 0.115141
0.0935929 0.221168 0.0986362
0.0737971 0.235502 0.101682
0.038968 0.277668 0.0683319
0.0589981 0.257016 0.0874293
0.0677168 0.265715 0.0694291
-0.134722 0.249949 0.108173
-0.0796235 0.2438 0.103219
-0.195928 0.260587 0.148813
-0.17575 0.259533 0.130615
-0.0509917 0.188947 0.139865
-0.116335 0.220759 0.116102
-0.0916008 0.18962 0.129885
-0.266009 0.222416 0.138232
-0.249542 0.237224 0.147163
-0.194125 0.191736 0.129572
-0.2247 0.218977 0.150532
-0.206172 0.167662 0.126657
-0.231386 0.249389 0.15331
-0.214722 0.254932 0.156057
-0.0354581 0.0780692 0.16654
-0.0626451 0.0951423 0.161342
-0.0626196 0.0510234 0.154295
-0.072421 0.1571 0.156681
-0.0685085 0.131238 0.165486
-0.0398341 0.144915 0.166778
-0.130165 0.095188 0.129323
[...]
POINT_DATA 2562
SCALARS Mean_Curvature double 1
LOOKUP_TABLE default
-4.7981
33.9981
4.37593
-5.73063
54.9767
-6.25825
5.30109
-1.66603
81.2713
-9.46031
-5.06239
148.139
58.689
82.8303
42.3579
-4.91303
15.9842
188.758
77.9944
87.333
1.80082
9.69992
-5.66065
9.13781
-8.33003
57.6844
18.8185
14.0589
1.22946
-0.10945
-18.3794
1.72848
81.626
0.857149
105.095
90.6988
4.58127
155.042
13.1408
-7.53068
-8.10316
-5.07753
2.22669
17.6443
4.90762
55.4777
77.0632
25.3423
-6.09322
-12.5407
-8.52954
3.92774
48.3092
3.3048
-0.830999
-25.2202
3.08097
11.4813
12.1627
6.08901
-33.064
91.0446
29.7126
-1.29223
10.0178
136.586
53.8486
44.7684
30.5843
-12.0485
2.94988
102.757
-1.28713
4.84205
-2.61972
5.59227
-5.51173
2.35267
-6.2783
32.6535
33.9528
8.32846
28.0561
-13.3747
-7.85221
3.47899
-12.6303
4.07465
1.23784
-10.3171
-11.5911
48.9927
30.3759
78.1555
33.3423
-15.8184
18.0055
61.5707
-5.95779
-5.90036
1.08707
21.4647
52.2935
0.529512
1.91905
18.4811
0.186089
-2.11632
-10.5001
-11.5249
-3.48695
0.444654
-27.2169
15.9163
58.5494
-0.876628
-22.1354
36.6344
13.4613
12.3161
-3.14564
-4.10916
-3.256
73.5221
25.3629
2.51445
1.42658
0.227059
6.21971
-13.4401
55.9192
11.0299
-12.1177
115.796
-6.43396
-13.3312
9.58691
53.4528
19.7607
20.2573
-4.71581
23.0524
2.56064
28.9175
151.634
72.5276
5.45304
2.03572
-2.61949
0.79149
8.54374
37.2066
14.0151
-13.876
-14.839
8.89718
5.06324
63.5056
-1.02144
21.9305
34.738
4.19753
-10.7463
-2.60605
-2.7517
-2.38861
1.48149
33.9469
3.99609
3.07117
4.26892
-25.9234
25.8401
37.2519
-19.4456
66.5275
9.58899
46.0419
20.3999
7.29368
-2.07493
-1.15465
8.54304
66.2486
34.3983
11.6052
16.8527
15.3314
60.2955
72.4198
15.5096
10.1838
21.239
4.06263
-20.8463
15.6214
140.792
27.3054
35.7393
-4.29695
-8.55971
1.96803
-10.9295
-2.05936
-4.01442
-1.67876
33.833
-19.3988
12.1472
113.052
20.7613
183.135
-0.350452
-24.021
11.039
0.741514
-14.6155
79.3504
-3.11229
9.5182
63.4101
-0.447045
27.5073
10.5271
8.59312
39.9387
-15.5198
1.64576
32.3353
37.8832
158.424
38.1103
1.19877
7.09626
-5.92958
10.8682
9.3801
119.365
46.6024
7.16362
85.9058
65.3484
63.9134
20.9396
-1.85851
27.7008
34.3178
-10.6188
81.6516
57.817
97.7479
4.59725
28.0487
40.4287
89.694
123.186
176.83
112.315
25.3567
-13.3911
84.7379
21.1259
23.5257
107.019
26.6143
-12.0796
-14.5656
96.6375
42.232
56.07
24.9443
11.3654
104.621
49.5605
20.4527
-3.17947
-5.07745
37.0315
17.8972
-11.1858
-15.9981
15.8198
2.10005
1.68994
17.7946
5.14719
2.06492
2.20817
10.2184
-11.5088
-20.5983
50.8253
-0.84373
-1.13188
-0.465136
-3.9126
22.72
6.6508
52.6562
8.72514
4.12216
-1.44327
10.3839
10.15
28.4733
1.33145
14.6205
16.7616
3.03399
33.6189
-1.24169
23.855
-10.0129
10.9718
0.106884
32.4333
-1.56609
3.28801
-8.54624
0.810581
50.336
4.44379
-3.02004
-4.92352
0.0790721
77.6922
-7.4356
-14.2067
73.7579
2.44939
-4.55456
39.781
5.193
5.19459
-8.05015
40.5756
21.8895
2.27596
-8.0845
0.191808
29.5621
27.6084
-9.3083
1.89699
-9.94562
41.1052
7.37158
-19.4395
28.6798
16.9005
-10.1027
12.1931
-0.813651
11.985
19.5065
39.4902
-4.24606
-2.7677
141.31
1.59663
121.577
37.5999
-15.5579
-15.4873
-9.28487
4.1686
-7.55625
-2.37727
-5.29233
-6.12327
-2.3778
-7.51177
48.0208
149.025
31.5622
-1.04068
-4.02724
1.82393
13.8331
-4.22814
8.5325
-6.79329
36.2018
124.713
11.8329
4.83054
8.93896
-0.799876
16.4427
0.196423
11.7427
34.0445
5.99295
-9.26164
-4.69047
-4.31353
13.1459
-2.61539
83.004
55.2323
3.92404
69.4443
-1.19134
-6.31245
-9.79128
-14.3053
-9.69129
-11.671
140.35
100.422
-4.86505
31.1626
42.2609
0.080097
28.5947
-2.41603
5.06441
5.46316
0.0787924
294.224
4.57791
7.25802
6.89842
-14.857
41.6529
-0.454469
81.8089
112.657
68.7204
-13.1179
14.3761
14.4813
5.33071
-5.71438
-16.644
8.16936
12.6361
73.2459
34.1824
-13.9468
-6.32644
25.3905
5.27711
-15.4449
50.8189
12.9515
55.3338
12.4294
-11.8777
35.1936
-6.85457
-16.8013
-2.04833
10.9562
2.32644
3.56413
4.09065
8.15343
6.43964
23.3474
55.1197
17.7094
134.288
-12.413
-32.6821
94.8576
6.88779
15.8775
17.8319
-0.138519
1.45347
-1.03071
8.33746
4.44294
3.3364
11.0316
20.6247
-17.1449
5.03609
45.3104
-17.8401
5.061
-6.71893
15.9227
25.9709
4.82002
-2.11471
6.99461
3.90085
103.421
4.88846
-12.2055
56.7933
34.3802
92.3358
-15.1519
-2.47521
62.1633
8.9834
-1.68694
98.0196
14.8711
6.31848
35.6768
85.9249
17.6529
2.27757
5.52973
44.8798
36.9575
14.8411
14.112
0.258968
-0.720641
-3.07643
-0.0824148
-6.99392
46.0832
13.0332
3.48401
18.2357
-19.8979
-14.5417
3.1816
-14.3184
-4.96439
28.3922
6.05364
3.61386
26.0091
-32.7383
39.3466
69.1033
94.4374
2.57818
-15.6935
50.6957
-22.7678
-16.1645
3.14685
-18.5791
61.1756
-18.6865
44.599
9.35526
92.3832
-4.2447
7.91905
6.08317
8.76441
73.4355
0.861803
-0.408295
36.8965
2.97208
-5.55223
-0.0269025
-11.3939
-14.4889
29.2272
59.308
-6.6577
-0.431315
7.91133
-10.1224
-8.34073
-1.06773
42.9367
-16.6322
39.2711
131.105
120.869
54.5006
19.3473
-2.3489
4.87311
-10.1169
-12.5918
-10.1414
8.20026
-16.1234
39.1838
64.0542
-5.57304
24.362
84.6481
-9.49992
32.3015
-10.8832
93.4404
-8.5976
1.40325
-6.04583
179.49
-14.4093
30.7587
31.7102
3.91195
6.59147
25.8474
-2.48863
11.6085
29.0564
-6.96967
-7.30203
-6.60548
1.3216
4.71164
-7.87972
1.39821
-3.56666
1.63242
5.40339
18.3424
19.5102
3.65668
-1.84923
-0.316335
-2.30758
-7.34993
0.308403
16.8535
-2.97729
1.26374
44.7554
19.1904
21.7791
66.5606
1.63984
-15.555
54.3269
31.86
27.0649
19.9877
-10.0077
2.18626
47.5289
27.9449
33.5882
20.3313
8.78944
2.06995
5.43418
-15.936
-10.7678
1.61653
-10.2102
-5.70397
12.4011
-9.41226
-13.0116
4.55854
74.2717
-26.8073
6.79038
26.4124
64.7519
18.7353
23.3415
0.751814
19.3331
13.4468
27.8125
-3.5027
4.96253
-12.9167
14.351
1.87676
1.0795
3.8742
4.56902
0.460792
85.1773
126.436
47.4733
-2.04624
-0.473355
2.56372
63.5306
26.9508
-16.8164
15.8665
43.1501
20.7481
70.5211
-26.4106
37.3259
7.19377
62.6966
87.4831
-19.4013
17.5976
38.8954
-9.24742
13.924
27.2227
-16.67
0.708391
51.0697
37.9628
-1.81802
28.6675
-6.9157
1.75703
-7.38843
7.21827
-3.46634
-6.81053
-1.22135
-1.13684
-3.57304
68.6296
26.2504
55.2375
35.0536
46.7037
57.9628
-0.732907
50.6168
20.8232
56.5887
-9.29514
19.2089
-9.04314
-9.13272
-5.87654
17.3105
14.8147
0.350471
9.50593
10.958
0.245405
30.7412
31.9099
10.3416
3.35731
-25.806
6.44665
60.1042
40.5135
37.5984
9.30032
65.8078
43.5894
65.8943
5.72783
16.2304
17.1125
1.59581
16.3765
0.596721
-9.94274
23.9439
5.27408
6.59949
22.2407
-5.76678
6.5399
-2.74926
69.6618
83.3264
26.5981
3.86923
9.31942
45.1466
33.9006
98.3166
2.61423
-4.52357
-22.4615
22.4618
7.00434
107.529
97.4184
3.1449
17.3182
-5.23451
-7.28838
-7.68727
-8.76504
-0.46587
-5.50065
-5.41953
-7.08951
-5.74182
-4.9094
-0.649044
-2.80591
3.63935
1.39126
-4.06744
-4.42219
8.60174
1.48201
-2.0896
20.1385
-7.12014
1.07173
-4.78787
-8.76531
-6.33294
-6.30556
80.057
-5.96835
-12.0838
-2.3561
-10.2634
17.0328
50.4042
25.6782
8.57449
107.709
117.167
94.3972
3.985
-11.3768
34.4947
27.4563
81.8618
28.9845
-10.9907
9.78442
4.77772
51.1867
21.3286
4.70487
-18.8737
57.9939
-24.7154
14.2912
-9.82843
-12.208
-6.29107
-0.974127
-5.28931
41.3514
34.126
-0.435079
-12.9292
-2.11946
3.59736
-6.72484
234.843
81.0172
19.2707
47.7983
13.3034
-11.4224
41.0141
-8.11053
-2.87871
-7.98498
12.742
2.46018
22.8028
0.33386
8.93476
7.3051
93.9144
1.1012
134.123
8.88692
35.7964
4.41827
31.25
72.9767
21.3719
4.13222
0.326066
-9.19138
4.40058
11.198
4.7546
32.5282
9.57804
1.5248
84.579
74.8773
-17.0003
-31.0576
-19.5181
-7.16543
-24.8785
139.518
84.9945
105.194
53.8649
20.4551
71.4848
38.7193
166.735
91.5893
112.066
23.734
-22.0056
44.4881
51.4793
34.305
175.601
9.45333
58.8929
19.4916
1.58644
-0.568299
2.79733
1.14558
-1.00833
10.1371
5.9075
1.62056
3.84935
31.393
46.8258
62.3504
3.05303
10.1703
3.1949
53.4203
14.8134
2.05734
50.786
84.1112
77.7917
13.1884
31.976
41.2243
-6.25747
10.2593
-1.26021
8.38401
3.36405
3.15114
12.1758
39.3145
20.8283
114.644
44.019
206.269
14.4035
134.348
236.306
72.6927
10.4834
23.1639
3.78414
3.41206
2.33158
151.637
22.4727
-0.17106
4.40678
-7.68656
-0.743869
45.9179
-4.50109
39.8375
13.2143
-6.11495
-28.784
-12.635
45.7854
96.699
27.68
8.43247
19.6006
82.0736
37.2721
9.95793
-3.12542
147.125
4.78188
163.48
-18.625
55.3345
20.1686
-29.7584
-1.5082
4.02366
39.8777
14.0025
12.841
13.7597
25.6407
61.4385
16.8496
30.7969
31.5936
24.0095
-0.0473979
122.206
86.5857
121.15
3.96398
66.9574
64.6202
43.2138
209.338
50.6232
72.4118
133.082
161.627
106.799
6.57802
32.2796
0.153396
-23.2453
59.0318
32.472
100.771
2.55924
20.4309
10.1127
78.1458
2.83351
2.62405
118.471
112.159
-23.4163
-12.6509
-8.80221
103.961
0.426451
52.715
24.7527
79.1515
156.36
-20.7042
39.3601
-40.1448
-15.5644
-1.97022
-13.8069
113.352
168.475
80.1147
28.9594
83.4216
25.8962
-38.2805
69.1768
76.4209
68.4537
6.74448
68.4006
130.43
99.8149
47.0727
68.233
61.5424
143.076
8.98438
-27.2633
-2.16833
40.3232
-6.72135
5.76019
45.7549
104.452
52.6265
10.5858
135.146
10.0166
-33.8987
41.2305
26.1353
49.9807
14.3022
-9.55267
-17.7983
8.25375
9.44557
-15.3332
-8.18299
-2.84422
-1.21883
-5.53323
3.2543
6.05857
23.2097
15.6881
10.8844
45.6023
-2.21403
8.49985
4.48485
52.3755
14.2651
26.9022
27.0669
13.7265
-13.097
21.9724
5.34525
56.1686
12.3407
-4.20196
-14.5031
-5.39305
12.0588
7.17689
24.4288
4.60669
3.86576
13.015
4.40578
117.782
-0.31405
1.57341
16.7582
14.2427
56.0949
24.1299
11.2136
6.91939
3.93974
10.422
-0.511617
7.57716
-3.8667
9.84783
1.39136
2.08135
-2.72487
5.02081
10.2998
25.911
5.61878
5.0341
28.4342
8.37773
14.2406
8.79769
31.5275
-11.0086
93.859
44.6158
107.213
9.87486
5.94319
16.2333
40.3673
30.864
7.14053
4.95472
-1.8354
3.60767
-9.07439
2.32122
-7.15325
-4.36787
-5.65107
-0.879429
-3.06041
4.96982
-4.60912
-9.87629
1.77931
24.0662
1.0963
4.38138
20.523
17.9569
28.1797
20.5327
3.94764
-4.88828
-2.04215
-4.99177
5.77102
-4.44129
3.88493
26.3836
23.1842
0.563759
5.78397
-15.1537
-0.508055
0.361856
9.93883
1.45372
70.4214
14.1093
59.3375
13.3573
-2.24608
-2.37955
15.9788
5.66297
20.1363
4.42769
47.6862
10.9376
4.18464
34.8326
19.6359
3.03702
-25.7622
40.3648
-1.99731
-11.1774
-6.48538
74.6678
4.12511
10.7279
26.1556
-0.229951
7.79359
15.0065
1.61493
50.0762
49.285
16.6444
5.26449
61.2508
-12.1437
21.7622
18.868
24.6631
91.167
-6.07136
-4.99218
11.5011
1.13335
9.40638
1.45406
12.9084
6.42782
6.26682
9.61625
8.14188
29.1702
60.4522
12.8185
-3.66628
19.984
32.8947
29.5259
75.1768
-0.355205
16.1379
-18.5226
47.4294
-6.86452
-4.30355
-2.50349
2.08431
1.56571
-4.15826
-4.54183
-0.144683
-20.4485
-3.1726
13.4017
15.5357
57.0456
8.34599
18.2819
-7.79823
-2.50597
-0.0453524
1.20804
-8.70055
-4.40651
-1.04162
-9.73355
-1.26908
-8.00314
-7.20298
80.2259
-17.9607
59.1934
-22.4418
14.1347
20.4101
71.0345
-0.027054
-6.23622
3.64754
34.1681
7.05185
24.0535
-15.88
-10.7767
19.6468
-2.76407
19.7107
3.86845
0.325995
179.161
3.69291
14.8627
59.0842
-0.912873
25.4226
18.7896
15.4663
1.09492
12.401
28.3853
-0.450748
-10.2385
13.9267
-6.2253
7.28536
43.6061
20.2804
17.0507
45.81
-8.27133
9.01949
4.79068
2.83974
1.31806
-6.58415
36.4756
-6.98999
-9.29282
-11.9682
-10.2743
-10.5897
-3.60767
37.8976
66.6985
-2.95963
18.306
51.2233
43.6333
19.1721
14.8886
1.12155
5.37215
-0.399759
-13.213
8.81409
-11.5944
-10.2011
-7.11119
-4.02129
-5.68818
39.2005
-5.09113
-9.37698
71.0456
64.7415
42.683
46.7984
-24.3628
12.6444
-18.9298
2.33215
1.87739
6.08884
-12.2624
54.5672
17.4294
32.9255
15.6458
22.0468
-4.28267
-9.81683
-7.01955
35.3683
-2.05958
33.7219
-0.538667
-17.7533
10.542
-10.5142
-7.53435
-6.14821
6.66367
-3.65748
34.336
0.496853
-2.695
57.2442
3.22985
-1.40391
-6.67697
50.9497
-1.96727
71.2187
-15.9548
-10.1564
25.9863
23.2229
-1.00858
4.86106
19.3211
-5.33337
3.2529
21.7391
14.7723
0.188211
21.3272
125.316
22.2172
39.176
37.3162
68.34
59.9941
34.8334
11.9386
-9.71601
-5.00452
-2.7165
-11.0254
-11.8381
12.314
-17.2328
-14.6229
1.2213
-7.72278
-11.4112
29.8033
36.386
6.86265
82.1832
19.3257
-9.05345
-5.5007
37.2015
-9.20316
29.0138
-11.0807
4.86963
-10.8162
38.5773
66.8933
7.0876
53.868
4.73634
18.5561
10.1814
18.7717
17.8291
0.290854
11.0647
27.9504
4.46448
3.14112
33.3339
1.42279
-6.09863
23.3513
1.42095
-5.18403
1.08729
-2.7883
35.0863
36.4491
-3.45351
46.0481
66.0948
-6.8248
108.901
18.1758
-3.39806
13.5874
-6.99943
-5.62428
-3.26374
-0.799111
-6.19895
-4.3229
-7.35347
-4.22245
-3.94513
-0.887927
2.42887
4.37885
3.75585
5.03237
6.1782
11.412
-2.86026
-4.97392
-3.29134
8.66614
2.73738
6.91508
-2.64578
-0.220693
6.76987
194.535
112.89
35.7391
130.811
131.393
59.7166
44.5114
4.10442
19.3202
21.2358
2.62516
4.51427
9.97393
19.2191
7.32512
36.694
0.98055
8.26486
11.7189
0.188407
-6.39043
-8.48396
-4.16811
-2.87537
-1.159
4.44453
12.1276
28.6294
-4.29532
-7.19894
2.49983
23.1609
5.7658
39.2801
5.22164
-5.48951
-3.86431
35.0515
97.0678
6.56571
50.1129
20.0846
140.473
44.4772
35.1236
-2.47773
-2.90666
-2.56555
-3.86525
4.55446
0.249718
-1.27617
-2.07138
-3.46491
-4.06158
1.31717
-5.3393
-1.93709
-1.69786
0.719185
23.4431
7.18105
0.906498
4.61689
2.43992
93.8324
55.0635
-11.9668
87.3892
21.022
57.093
97.8224
0.368165
5.63428
1.22974
7.20988
1.74386
1.47006
47.5501
0.864947
74.1917
-0.458815
-9.36848
19.9838
14.0846
62.6999
-11.0498
78.5019
-6.01095
-16.2225
36.6478
14.1076
-7.86738
24.9733
-4.26208
1.07012
-9.75611
-0.801226
-10.1137
-3.42836
-26.4697
-20.8929
55.6822
31.6112
177.797
155.947
305.676
22.5004
-21.6898
44.3263
3.49513
41.9209
-15.7585
5.53361
15.6756
-9.58758
8.14007
20.4792
5.76532
1.94439
16.1235
5.95042
49.0246
22.616
-1.4435
-6.4587
1.12341
0.856974
29.0471
-7.86914
29.0089
8.2187
6.2533
0.552154
-6.95031
18.8419
13.6763
29.1202
43.3309
12.2624
226.683
79.6704
46.6036
184.029
3.50537
-2.85523
-0.480558
-3.28334
0.699042
-9.80623
1.8765
84.1452
6.56429
1.81968
1.0887
-4.39526
5.81956
14.1926
14.1589
-2.94773
14.4138
5.41211
46.534
2.40935
29.4624
-6.83941
37.5141
104.716
34.2807
62.133
37.8088
14.5336
45.3132
51.6106
32.3808
-18.1279
64.043
51.2769
42.6327
12.5043
-1.3049
1.16432
-22.0976
-24.6084
21.6166
-4.66903
2.95814
52.9709
59.1644
14.8079
-10.6229
4.78654
23.1332
3.27889
-11.469
-8.07251
-13.93
10.6939
7.90615
37.1893
7.83151
-5.75874
16.1217
11.7695
14.2373
-0.531468
91.5647
11.4594
25.121
-2.60705
-5.18577
62.2299
2.9036
0.104762
-8.76344
17.7633
-3.70114
-21.1861
-17.783
19.7341
12.2695
82.4008
23.1507
10.5744
3.05659
4.8439
10.1927
8.62536
-4.51915
-21.5423
-16.7283
-3.88398
50.7688
-22.5446
-18.7605
23.5621
2.61684
5.93772
4.25159
29.7711
64.5725
5.73314
-3.5696
-12.1192
17.3908
-8.49657
-10.1862
29.7188
-17.4518
24.4884
11.4099
8.55399
86.3086
-0.674402
17.154
11.6085
-10.8002
15.1721
-3.28131
27.4751
20.0151
-0.0106988
9.431
2.94426
5.2422
-11.2941
13.5726
24.3002
0.557214
1.62789
6.2599
-0.148335
4.16061
26.1876
12.8871
3.15602
-0.0989733
5.51211
13.1994
13.8961
-1.84164
3.16147
0.514175
-13.4342
7.38638
4.66175
2.10751
0.563819
1.88433
7.56015
3.59252
11.1371
-15.6183
-7.62523
4.3095
66.6046
46.0475
-6.30051
-24.0259
56.5659
137.9
-38.5517
53.5883
43.8307
3.0317
-7.68822
146.475
36.5715
70.0439
91.576
-23.9079
-4.53814
38.2588
26.4947
109.416
51.5086
127.189
-11.5162
3.04728
-0.425056
3.83591
6.37824
-3.84889
5.92073
11.8029
-3.51113
-1.12114
1.61615
2.12949
4.0615
5.68205
1.98623
2.27592
10.1322
-0.200162
-0.965943
11.1467
2.16918
6.47561
3.78652
9.63855
0.253687
1.87151
-1.44047
3.25704
-20.1024
9.73267
6.97735
13.6086
18.5779
8.05211
11.5757
5.51756
26.941
6.71609
-0.15581
1.1083
2.61068
5.56686
-18.3415
-15.3352
11.775
-11.1057
12.648
-12.7429
11.4177
10.0127
49.4937
11.291
0.281336
59.1209
25.1293
41.3018
-16.0186
7.35301
7.02777
-8.32852
3.55189
5.09343
6.53796
134.676
70.1431
120.835
40.4535
38.7477
23.2623
9.30184
16.1532
0.0845438
9.39834
1.00967
7.79834
2.22946
-0.198223
1.68088
-0.788595
30.396
3.57004
3.17064
73.3453
37.7259
118.194
4.46963
5.66432
2.47151
98.8311
30.7866
26.2423
7.73761
3.4587
4.06907
-6.99058
-6.49485
-11.6285
-1.47197
0.131897
11.5032
1.90629
8.37443
53.0862
8.89419
16.0928
-7.6742
-3.50309
1.27438
-7.66083
-9.06698
-7.64438
-18.2636
-12.7659
-12.2937
-12.818
-12.4147
-3.85431
29.4408
-8.48404
17.3276
6.64451
105.74
-3.72143
1.71062
13.4419
82.5205
8.9247
4.17683
22.7555
-2.5518
-9.28075
-15.4486
13.4514
-1.42783
-1.67767
16.2777
73.3674
72.8603
81.204
11.0562
2.31045
92.6266
19.8833
23.3457
83.7638
41.0665
8.29519
28.707
8.63134
7.78929
6.25825
-15.7965
13.454
23.619
-28.4025
59.2216
0.929135
19.0044
-24.7775
4.68998
31.4068
30.6438
-22.8699
3.52727
-26.6599
51.375
81.4933
-3.93104
121.303
-15.7659
31.48
-0.423049
-5.29911
7.75863
-23.8074
4.86392
33.6477
-8.57654
-1.5005
21.7002
5.8672
3.43638
-10.5956
11.4407
14.2936
-7.68579
-15.8242
6.1373
6.74255
18.256
5.13251
-18.0392
-12.7148
-11.408
7.99121
32.9782
22.9162
-0.254923
-2.47546
-18.3586
22.7562
8.31984
10.1129
26.4496
9.79151
0.774416
3.35223
18.8444
-0.704244
14.0837
11.4127
-25.9588
-5.51272
19.0913
-26.3632
25.0933
15.0897
4.65396
-18.7475
8.91745
-3.03674
21.8458
4.95266
21.8644
16.8327
4.75821
15.5422
12.8275
7.47337
-0.296816
4.22078
24.7708
37.5733
-7.02456
44.9365
18.7136
29.5226
13.0315
24.0894
33.3616
2.58878
10.1796
16.571
-11.799
-0.371724
-17.1725
22.6355
11.7152
-0.00694936
20.1898
-22.1918
9.49892
-4.8739
79.953
139.427
22.9858
14.0302
82.3685
-1.29738
2.22552
15.2131
4.60053
-4.56405
23.8087
75.8605
7.38616
1.52507
0.360359
60.6253
80.561
20.195
-23.7731
35.367
32.6758
53.8634
10.4663
0.238616
35.0559
-4.00904
-8.4683
-1.90088
-14.9438
-20.4125
-3.25182
9.36858
3.12472
5.34175
38.8592
107.71
-10.4415
2.75539
64.1979
2.72319
52.4748
5.48377
-19.4956
-3.59186
13.9562
-8.46683
-12.8456
11.7385
10.1701
28.0333
-9.99818
15.9006
40.9294
70.5192
17.1813
6.01248
107.817
173.369
7.75572
-12.5851
-12.4238
-8.58886
-10.1246
1.09124
7.28991
12.9914
17.5957
1.35466
4.51569
-24.8218
69.9446
39.1526
20.8999
1.08811
8.30063
5.76346
52.0962
10.3586
6.71454
65.1387
5.4294
2.84986
6.02172
13.4918
5.50525
10.6252
3.07339
-0.814937
0.380786
8.64324
-3.9085
4.23254
6.40456
6.85048
39.6534
-1.593
4.08105
1.05718
1.31731
0.54893
1.114
26.8526
1.14871
12.7282
2.26777
13.2
8.82193
8.01206
9.79404
2.31071
17.6159
5.08607
37.7869
23.8835
22.0043
36.1042
5.6201
48.0167
33.5841
35.9276
6.84571
0.684419
-8.90425
14.4212
10.8942
18.9956
-12.3964
0.324581
14.9824
3.70075
-9.2817
9.47422
7.78232
-6.49343
2.02845
48.8833
6.97197
24.2354
22.2215
-10.7975
7.38042
13.0316
-10.2353
4.9029
-14.8749
4.48089
-3.71437
-11.8963
9.40375
-3.45651
-14.8474
-3.40763
-0.738425
-6.89897
8.19937
-11.6222
24.8635
55.0365
19.6099
26.8499
30.426
13.9537
12.3311
-13.1974
45.7248
16.4386
22.2269
34.1239
17.7612
5.97182
-6.49476
38.0689
35.6723
7.78026
-22.2065
77.5978
-26.8865
96.2876
-4.06447
116.211
74.1053
83.2772
-0.93756
0.584306
-13.2684
-8.63315
15.3978
-7.86182
32.9599
36.0892
58.5203
81.4294
102.404
43.2747
-12.2823
-11.5582
-5.70778
16.338
85.0699
15.444
-8.77103
-11.9678
-8.89881
-12.9826
-9.2165
-13.4033
-19.0655
94.7604
18.0141
-1.13352
41.7012
25.7808
39.356
-7.08165
-13.7947
5.40146
48.8003
0.696482
5.43462
14.7868
-7.04017
10.5002
59.9206
17.7155
5.14693
-0.7722
12.4956
15.1121
8.95058
6.18552
-14.5682
37.026
-2.17624
50.3265
-2.0784
30.1447
1.7469
3.92249
73.7515
79.2294
2.42639
132.305
66.0423
-5.23463
-2.73546
-2.40453
-11.4704
-0.477348
-5.98782
-1.23795
9.60413
-4.82297
0.657672
32.8396
5.2803
40.0925
22.3125
-5.92043
4.55428
38.9265
29.3058
72.0947
26.2372
-2.60941
30.6735
3.14336
29.0748
-7.07442
2.8705
-8.69752
-0.815892
15.4771
-10.1247
-6.82837
-8.57519
-3.15365
-9.77674
-5.78592
9.479
185.166
115.92
18.6388
81.617
-0.986261
-13.6242
8.45237
47.7235
-10.6399
26.6388
-7.31224
27.8677
36.5568
120.514
4.86648
-11.4124
3.18918
9.52134
73.8845
4.61936
24.1572
-4.64348
-5.42718
3.15379
10.979
14.5861
8.35461
26.4206
-3.14123
17.2926
9.2877
26.32
7.48276
19.4677
-0.000662222
36.2299
11.918
17.376
48.4456
-12.0183
-9.21495
-12.948
3.08975
24.3893
-12.5321
23.6584
40.4705
-6.50828
-6.17183
23.0542
17.9785
-11.4152
-12.7799
7.93188
-11.6237
-12.4031
0.790924
-4.43583
-12.4817
-7.2957
-11.48
-23.3449
49.1716
-15.2096
34.7008
13.4406
-4.81694
36.5651
-9.61467
5.02894
6.49567
-5.18875
19.2044
14.1019
-0.889361
0.302179
10.5511
-5.05357
-8.31117
6.24026
20.3759