# vtk DataFile Version 4.2
vtk output
ASCII
DATASET POLYDATA
POINTS 2562 double
-31.3631 20.4696 -80.5284
-28.6856 20.4706 -80.5686
-31.0957 14.8267 -80.7855
-29.0457 14.8241 -80.7605
-30.006 16.2969 -78.9922
-29.9792 19.5996 -78.3528
-30.0373 16.2701 -82.7513
-29.9997 19.2802 -82.5858
-28.5634 17.9287 -81.738
-28.3246 18.2084 -79.4526
-31.5064 17.8822 -81.8138
-31.7689 18.1138 -79.4929
-31.8993 19.554 -79.7343
-31.2479 18.9587 -78.5127
-30.8602 20.555 -79.1307
-29.1503 20.5144 -79.1142
-30.0137 21.0245 -80.58
-29.272 20.2933 -81.8745
-30.7778 20.3137 -81.8696
-30.8964 18.7199 -82.3904
-31.6677 19.4473 -81.218
-31.8841 18.0423 -80.4052
-28.7872 18.9834 -78.5038
-28.1271 19.5317 -79.7538
-30.9012 17.1657 -79.0715
-30.026 18.267 -78.2466
-31.2275 16.182 -81.2079
-31.3915 16.2361 -80.038
-30.057 17.7628 -83.249
-30.8415 16.8429 -82.5723
-28.3744 19.4519 -81.2069
-29.18 18.7807 -82.3559
-28.6449 16.2588 -80.0162
-29.1368 17.133 -79.0412
-29.4657 15.0476 -79.7968
-30.5893 14.9976 -79.8761
-30.0417 14.5247 -80.61
-30.6373 15.1201 -81.4135
-29.5587 15.1844 -81.3847
-29.2749 16.8703 -82.5471
-28.8658 16.3055 -81.1813
-28.1585 18.0415 -80.4277
-31.8141 20.116 -80.0953
-31.626 20.0866 -79.4119
-31.2115 20.597 -79.8386
-31.5958 18.5862 -78.9863
-31.6954 19.3415 -79.1166
-31.8897 18.8208 -79.4943
-30.4074 20.1606 -78.6063
-31.1223 19.809 -78.7988
-30.5936 19.3189 -78.347
-30.4866 20.8799 -79.732
-30.8184 20.858 -80.5958
-29.5697 20.1569 -78.5752
-30.0162 20.7422 -79.0376
-29.2115 20.8575 -80.5824
-29.5399 20.8756 -79.7344
-28.8415 20.604 -79.8194
-30.4482 20.8198 -81.3424
-31.1274 20.5207 -81.2568
-28.8885 20.5058 -81.2499
-29.5965 20.8242 -81.3514
-30.356 19.8702 -82.2647
-30.0097 20.4105 -81.9226
-29.6613 19.8662 -82.2725
-31.3402 19.9824 -81.65
-31.6171 20.0313 -80.8954
-30.4311 19.0216 -82.5872
-30.9276 19.6443 -82.1957
-31.5851 18.6879 -81.5271
-31.3603 19.1947 -81.9262
-31.2695 18.2816 -82.1137
-31.9047 19.5713 -80.4769
-31.6535 18.0121 -81.1951
-31.8859 18.8297 -80.8364
-31.9365 18.8635 -80.1078
-31.968 17.9998 -79.8749
-28.4811 20.0785 -79.3833
-28.2691 20.0429 -80.1053
-29.39 19.3563 -78.3473
-28.9042 19.8273 -78.734
-28.1386 18.8441 -79.5136
-28.3545 19.3324 -79.0741
-28.4849 18.6142 -78.9511
-30.5729 18.5816 -78.213
-30.0154 18.8666 -78.1281
-31.4524 17.7434 -79.1826
-31.1076 18.2204 -78.6355
-30.0103 17.358 -78.6402
-30.5303 17.7841 -78.4844
-30.4769 16.5815 -78.9852
-31.7306 17.3139 -80.1525
-31.7757 17.3931 -79.7329
-31.4133 17.1388 -81.6609
-31.5574 17.1341 -80.9073
-31.2882 15.3832 -80.4791
-31.3734 16.0152 -80.6326
-31.2785 15.3044 -80.9339
-30.7731 17.7192 -82.6178
-31.2002 17.3517 -82.1992
-30.0282 18.3567 -83.0273
-30.3074 18.0273 -83.0099
-30.4474 16.4741 -82.752
-30.3217 17.4838 -82.9209
-30.0488 17.079 -82.8327
-29.1109 19.6246 -82.21
-29.5831 19.0727 -82.5909
-28.4045 20.0346 -80.906
-28.6856 19.9765 -81.6462
-28.7991 18.3473 -82.056
-28.6807 19.2117 -81.9209
-28.4524 18.7185 -81.5079
-28.8564 15.4554 -80.4401
-28.9417 15.6706 -79.8612
-29.2522 14.8551 -80.2663
-28.644 17.7732 -79.1435
-28.8577 16.5164 -79.5201
-28.4093 17.4234 -79.8085
-29.716 15.7408 -79.3621
-29.1448 16.064 -79.2726
-29.5333 16.5754 -78.979
-29.6701 14.5102 -80.0485
-29.2475 14.4982 -80.7366
-30.307 15.7253 -79.3839
-30.0411 14.8524 -79.8395
-30.8018 14.522 -80.6879
-30.4511 14.3427 -79.9912
-30.8909 14.7447 -80.2481
-29.5783 14.525 -81.2526
-29.1679 14.7872 -81.0456
-31.0091 14.7318 -81.1891
-30.5309 14.5334 -81.2664
-29.7713 15.906 -82.4447
-30.0631 15.0965 -81.471
-30.301 15.9056 -82.4316
-29.226 15.6003 -81.2604
-28.9695 15.3592 -80.8458
-29.6634 16.4719 -82.7422
-29.3931 16.1536 -82.3219
-28.6276 17.1822 -81.6139
-28.9306 16.5955 -81.9939
-28.8922 17.3912 -82.1262
-28.6671 16.1067 -80.546
-28.387 18.0371 -81.1585
-28.4741 17.236 -80.8405
-28.3033 17.3455 -80.2194
-28.1316 18.0702 -79.9343
-29.4826 17.7672 -78.4912
-28.9138 18.243 -78.6229
-29.4424 18.6168 -78.2756
-31.1041 15.5808 -79.911
-30.8824 16.0392 -79.3125
-31.2283 16.5241 -79.5556
-30.7215 16.1605 -82.3183
-30.9347 15.489 -81.2943
-31.1493 16.5592 -82.0416
-29.3194 17.7614 -82.5746
-29.7663 17.4652 -82.8848
-29.752 18.0805 -83.0055
-28.1016 18.8737 -80.1163
-28.1399 18.8529 -80.8128
-28.1214 19.5613 -80.4789
-31.6029 20.3328 -80.3162
-31.5688 20.3623 -79.9524
-31.3322 20.5381 -80.2213
-31.8551 19.8302 -79.5683
-31.7624 20.1156 -79.7509
-31.8793 19.8601 -79.8999
-31.045 20.605 -79.484
-31.4285 20.3653 -79.608
-31.2516 20.3402 -79.2457
-31.708 18.3717 -79.2485
-31.8124 18.722 -79.2195
-31.8467 18.4372 -79.4516
-31.4536 19.1519 -78.8177
-31.65 18.9508 -79.0223
-31.4024 18.7837 -78.7564
-31.8989 19.2065 -79.6048
-31.8272 19.0994 -79.3142
-31.8522 19.482 -79.4384
-30.1715 19.879 -78.4685
-30.5275 19.7746 -78.4827
-30.2562 19.4738 -78.3508
-31.0185 20.2211 -78.9411
-30.7701 20.0176 -78.6819
-30.6418 20.3971 -78.8441
-30.9211 19.1317 -78.4537
-30.8759 19.5871 -78.5291
-31.1962 19.358 -78.6505
-31.6956 19.726 -79.2662
-31.4759 19.5754 -78.9175
-31.3866 19.994 -79.072
-30.9992 20.778 -80.1687
-31.1186 20.6796 -80.5708
-30.6861 20.8016 -79.387
-30.8755 20.8401 -79.7559
-30.4101 20.9263 -80.5902
-30.6583 20.8821 -80.1527
-30.2153 21.0093 -80.1683
-29.8012 19.8744 -78.4621
-29.9933 20.1867 -78.5888
-29.5622 20.658 -79.0647
-29.7692 20.4374 -78.8194
-29.3577 20.3678 -78.825
-30.2368 20.4493 -78.8319
-30.4583 20.6945 -79.0618
-28.9163 20.6849 -80.5717
-29.0397 20.7869 -80.1677
-28.7547 20.5362 -80.2348
-29.8103 21.0111 -80.1677
-29.3689 20.8833 -80.152
-29.6203 20.9288 -80.5825
-28.9773 20.588 -79.4696
-29.1543 20.8401 -79.7528
-29.3358 20.7983 -79.3894
-30.2571 20.8548 -79.3168
-29.7753 20.8512 -79.3263
-30.0133 20.9194 -79.7472
-30.9704 20.7733 -80.9672
-31.2536 20.5227 -80.8841
-30.2306 20.9081 -80.9824
-30.6469 20.8641 -80.994
-30.9767 20.4509 -81.5864
-30.8072 20.718 -81.3058
-30.6298 20.5922 -81.6374
-28.7658 20.512 -80.8807
-29.0657 20.7476 -80.9425
-29.4175 20.5973 -81.6447
-29.2446 20.6868 -81.307
-29.0575 20.4453 -81.5917
-29.4019 20.8573 -80.9835
-29.8035 20.9072 -80.9852
-30.1429 19.5312 -82.4572
-30.0025 19.8981 -82.2748
-29.8564 19.5297 -82.4606
-30.4189 20.3937 -81.9173
-30.2095 20.1759 -82.1416
-30.5728 20.1283 -82.1353
-29.4624 20.1279 -82.1469
-29.8053 20.1733 -82.1449
-29.6106 20.3886 -81.9231
-30.0111 20.8517 -81.3607
-29.7943 20.6609 -81.6498
-30.2309 20.6598 -81.6496
-31.4063 20.3167 -81.1331
-31.503 20.2898 -80.7089
-31.1005 20.1744 -81.7763
-31.2847 20.2873 -81.5136
-31.6648 19.7614 -81.0559
-31.487 20.0305 -81.316
-31.5297 19.7255 -81.466
-30.2038 19.1687 -82.6005
-30.4278 19.4723 -82.4482
-30.9361 19.1704 -82.2982
-30.6804 19.3462 -82.3695
-30.6546 18.8767 -82.5046
-30.6769 19.779 -82.2447
-30.891 20.0052 -82.0833
-31.5312 18.2012 -81.7013
-31.422 18.5178 -81.8615
-31.422 18.0353 -81.9551
-31.5295 19.3625 -81.6007
-31.4752 18.9642 -81.7335
-31.6461 19.0908 -81.3754
-31.1127 18.528 -82.2563
-31.3416 18.7721 -82.0727
-31.1768 18.9701 -82.1979
-31.144 19.8342 -81.9346
-31.1651 19.4211 -82.0639
-31.3708 19.6173 -81.7792
-31.7707 20.0731 -80.4745
-31.8632 19.5252 -80.8493
-31.8568 19.8228 -80.6729
-31.8789 19.857 -80.2789
-31.9089 19.5819 -80.0842
-31.5728 17.9262 -81.5894
-31.6397 18.3582 -81.343
-31.9004 18.4396 -80.645
-31.8243 18.4442 -80.9692
-31.7858 18.0792 -80.7788
-31.754 18.7893 -81.1577
-31.8145 19.1663 -81.0098
-31.8927 18.425 -79.7142
-31.8936 18.0392 -79.681
-31.9198 19.2417 -79.9126
-31.9221 18.8646 -79.7872
-31.9205 18.0073 -80.1064
-31.9183 18.3943 -79.982
-31.9188 18.4045 -80.2834
-31.9054 19.2275 -80.6635
-31.9281 18.8584 -80.4772
-31.9275 19.2511 -80.2853
-28.5331 20.3202 -79.9357
-28.4933 20.2837 -80.3557
-28.7706 20.3355 -79.2075
-28.623 20.3691 -79.5557
-28.1474 19.8177 -79.9159
-28.3356 20.0652 -79.7348
-28.203 19.8096 -79.5771
-29.7038 19.5022 -78.3148
-29.4366 19.7797 -78.4615
-28.8349 19.3943 -78.6064
-29.119 19.6236 -78.4973
-29.0824 19.1701 -78.4245
-29.2029 20.0157 -78.6196
-28.9626 20.2363 -78.8613
-28.2212 18.5029 -79.4618
-28.2946 18.7575 -79.2423
-28.3722 18.3994 -79.2242
-28.1839 19.4523 -79.4271
-28.2303 19.1042 -79.315
-28.124 19.1886 -79.6082
-28.6293 18.8021 -78.7082
-28.4144 18.9747 -78.9891
-28.5903 19.1686 -78.7787
-28.6612 20.0017 -79.0274
-28.5915 19.5904 -78.8789
-28.4137 19.7192 -79.2362
-30.2966 19.0518 -78.1766
-29.9947 19.2463 -78.2484
-30.8956 18.759 -78.4071
-30.5831 18.8961 -78.2592
-30.0243 18.57 -78.1346
-30.2955 18.7127 -78.1369
-30.2877 18.4283 -78.1726
-31.651 17.9685 -79.3665
-31.5152 18.2052 -79.045
-31.0403 17.766 -78.7815
-31.3021 17.9861 -78.874
-31.2133 17.4895 -79.0744
-31.3621 18.4229 -78.779
-31.1793 18.6085 -78.5545
-30.003 16.6813 -78.9285
-30.242 16.9951 -78.8624
-30.22 16.4052 -78.981
-30.2763 18.048 -78.3433
-30.2666 17.5797 -78.4997
-30.0214 17.8343 -78.4252
-30.6673 16.8193 -79.0297
-30.4716 17.2667 -78.7925
-30.7383 17.5258 -78.758
-30.8613 18.4193 -78.4252
-30.8244 18.0016 -78.5238
-30.5504 18.237 -78.3341
-31.8967 17.7226 -79.801
-31.8368 17.7844 -79.5932
-31.8578 17.6867 -80.2375
-31.8916 17.6974 -80.0065
-31.4537 16.8771 -79.9146
-31.7837 17.3436 -79.9235
-31.4674 16.7607 -80.1383
-31.4724 17.5933 -81.7582
-31.561 17.5667 -81.4555
-31.3931 16.5901 -81.1259
-31.4917 17.1097 -81.3132
-31.3783 16.6813 -81.517
-31.6318 17.6031 -81.0541
-31.7295 17.6741 -80.591
-31.15 15.0598 -80.6601
-31.3218 15.3268 -80.7436
-31.1688 15.0216 -80.8749
-31.3984 16.1063 -80.347
-31.3542 15.6688 -80.5628
-31.3486 15.7715 -80.2715
-31.2234 15.6378 -80.978
-31.3216 15.6121 -80.7903
-31.3049 16.0246 -80.8744
-31.6389 17.2241 -80.4751
-31.4131 16.541 -80.753
-31.4454 16.6159 -80.4236
-31.2727 17.799 -82.2063
-31.3866 17.6618 -81.992
-30.7839 18.1467 -82.5164
-31.0464 17.9759 -82.3555
-31.0174 17.0668 -82.4105
-31.0254 17.5221 -82.4269
-30.8165 17.2943 -82.5989
-30.0149 18.8291 -82.6987
-30.1767 18.5958 -82.8222
-30.1765 17.85 -83.1823
-30.1674 18.175 -83.0592
-30.048 17.9933 -83.1264
-30.3304 18.4409 -82.8039
-30.5204 18.301 -82.6904
-30.2324 16.3486 -82.7588
-30.2514 16.7252 -82.7881
[...]
POINT_DATA 2562
SCALARS Mean_Curvature double 1
LOOKUP_TABLE default
-0.702997
0.824796
0.0403412
2.04658
0.554486
2.09003
0.932601
1.03088
0.391152
0.192038
2.1209
-0.934069
0.616288
6.18898
0.703252
0.710886
1.22211
-0.256843
0.234589
0.553023
-0.313273
1.14657
4.47276
0.591192
-0.160179
-0.383474
-0.433639
0.269051
17.3422
2.11676
0.0163009
-0.459749
1.03216
0.942004
6.15843
0.414383
-1.00652
0.538443
0.248421
4.37317
-0.435575
0.846858
2.87266
2.76694
-0.327242
0.376141
1.75627
0.490626
1.71379
-0.43898
2.11734
-0.140638
1.38981
2.5068
2.79623
1.18064
-0.380887
1.25
1.60445
0.0758698
0.899231
2.54818
-0.342017
0.238393
-0.157044
0.432076
-0.79762
1.28756
2.29424
0.221841
1.11271
-0.324388
0.750404
-0.127988
1.17733
0.430283
4.91674
0.457362
0.745119
0.346197
-0.233119
1.89489
3.23875
1.07716
3.15372
1.37981
0.631474
0.00332962
0.784051
2.19523
0.945905
0.620085
3.19799
-0.0998027
0.152975
1.74078
0.892656
6.4824
0.105707
-0.0466925
8.62189
0.644572
0.971067
-0.25432
0.110568
2.46448
0.644368
-0.469782
0.606908
-0.437017
1.78696
0.244812
2.64418
0.202954
-0.249381
1.30611
-0.158399
0.0471634
0.434205
1.89391
0.528369
2.46426
3.09537
0.290229
-0.257188
-0.242094
14.8787
0.148605
8.61808
0.915667
1.55364
8.65155
2.33582
0.0896094
3.41127
-0.330289
0.881764
4.11933
1.85363
0.623652
1.01701
-0.169975
1.83837
0.0112924
0.314322
0.962051
0.973501
3.04721
-0.0209902
0.062174
0.378532
1.21767
-0.0141325
-0.896282
-0.030217
0.97349
-0.0060218
-0.498324
3.17811
0.056377
1.83602
0.778374
2.0167
0.523801
-0.133654
3.16918
2.16602
0.462201
-1.53048
-0.2629
1.00122
-0.164088
3.33922
2.83154
0.32364
0.833466
-0.993203
0.701165
1.18573
2.28466
-0.0384092
0.946583
-0.392458
0.929548
0.914265
1.79661
-0.343675
2.45333
0.641619
0.803869
2.46765
0.645895
1.04946
0.610973
2.19029
3.54136
-0.605675
-0.0122474
2.06062
-0.295333
1.09447
0.789326
0.411167
0.78465
0.319603
1.16497
0.870615
1.42114
0.0877113
2.18736
0.0256172
-0.497635
-0.415258
3.66336
2.62593
0.288519
1.0766
-0.405977
2.87297
0.422568
-0.0986992
0.457629
1.51015
0.901393
1.02561
0.734606
2.48162
2.48355
0.30346
3.07913
0.909925
0.0151583
0.22752
-0.217143
0.0453686
0.538376
1.26127
3.43264
4.17981
1.2462
0.633363
1.67399
0.427484
0.367213
1.45239
0.542767
0.52467
4.02537
-0.635396
1.31292
1.12912
0.679941
1.41809
0.273058
-0.406785
-0.00270306
0.112944
3.21921
0.66154
-0.4653
0.0267843
1.55584
-0.184544
0.118412
0.186761
2.17745
0.54501
-0.144276
0.192952
0.303381
1.31178
3.4212
4.14221
0.399745
-0.0520232
1.01409
-0.414171
0.742197
1.66867
-0.173919
0.0798944
0.474459
0.264562
0.617938
0.0264094
0.451914
0.278835
0.252346
0.0524939
0.421269
0.490661
0.231758
0.418416
0.282908
1.43916
1.38843
1.92438
-0.141744
3.09697
1.82139
-0.191999
1.38695
1.83325
-0.738541
0.588141
4.50723
0.448829
0.0553329
0.983166
3.00679
-0.0583741
0.952494
-0.379493
1.32856
0.61004
0.480652
2.27377
-0.795655
2.77421
-0.18691
-0.600506
-0.72739
1.04843
1.15254
3.17705
-0.480809
0.650708
0.64882
2.2422
1.85763
0.806807
0.842979
0.103707
-0.34489
0.292369
1.23228
3.58408
-0.118362
0.337864
-0.137765
-0.299927
0.12484
1.27206
0.994641
0.16912
3.31379
1.40009
0.426417
-0.649883
0.804248
-0.0451858
-0.126868
0.659739
0.378165
0.379982
0.778234
0.218408
-0.539267
0.14574
3.93185
1.24861
0.791524
0.564603
1.1195
0.104422
1.0072
0.10572
0.276347
-0.159556
-0.244488
2.46684
0.104479
-0.24368
-0.187349
0.701318
0.324808
-0.129724
-0.621495
2.27519
4.58431
3.71286
0.438287
0.253716
0.0240539
0.766242
0.425296
0.13067
1.26001
0.462214
1.28538
4.23727
-0.373889
6.67632
0.415719
8.962
-0.400003
1.28105
0.650463
1.27256
0.117884
0.900851
0.309768
-0.347227
0.931265
1.678
1.40883
1.55859
-0.943862
4.54309
0.282161
1.05886
-0.231653
1.35177
1.72921
1.86196
1.29685
-0.146405
0.503717
2.67477
-0.748668
1.43155
1.70414
0.665388
2.61539
-0.116073
2.91711
0.48473
2.08597
1.21284
-0.467782
0.703245
-0.322498
-0.0151281
-0.650196
-0.196059
-0.276203
0.558022
-0.337107
-0.592431
2.18759
1.38693
3.30126
0.261782
-0.712813
1.2382
0.0741265
-0.149253
3.469
1.17751
0.0703807
1.89643
1.06845
2.98656
6.3727
3.1669
4.70151
-0.105757
3.85363
-0.150955
1.47923
0.0893474
-0.182409
0.125312
-0.030978
0.0456832
-0.65677
1.11906
10.8375
-0.0269104
-0.402289
0.611883
-0.357941
2.41249
3.97068
3.39042
1.56648
1.07492
14.6839
9.84326
5.14815
0.246746
1.14998
0.816967
2.84422
2.3714
7.13147
5.84329
0.972946
12.3517
2.54246
0.381909
0.551825
2.58146
1.53824
2.53438
0.327964
-0.0486452
0.300123
-0.0885921
-0.119943
0.338754
7.95799
0.949819
0.917452
1.82014
1.56131
-0.0182354
0.995051
0.185072
0.57631
-0.502777
0.589633
9.74737
0.199567
1.14143
0.105498
3.57335
0.323987
0.293452
1.02842
1.33041
1.71551
4.26004
1.01388
-0.365706
0.375932
-0.168809
0.0353549
5.75028
0.594956
2.50855
0.012235
0.573246
3.85141
0.713177
0.830839
0.180493
-0.105574
-0.0164489
-0.178257
-0.214852
0.419995
4.62404
-0.0914951
-0.203196
2.61643
0.381975
1.93633
3.47382
-0.38114
0.19011
-0.218968
-0.314572
1.66562
0.646617
2.32955
0.709834
0.673565
3.8252
1.00155
0.468631
1.44972
0.113698
2.1718
2.34065
-0.152506
3.3645
1.53973
-0.0602678
-0.691244
-0.873492
0.750767
1.12908
0.518129
1.58867
3.05861
0.0995299
3.89786
0.959713
-0.328832
-0.872822
1.64778
-0.382585
-0.132955
-0.465891
-0.231361
1.54389
5.77097
6.51535
0.00148709
0.533018
2.93227
1.15495
3.07837
-0.69537
-0.437116
2.15193
0.673365
2.24562
0.257524
1.05029
1.42064
1.18192
0.0509765
0.724758
2.95462
0.811929
0.629493
1.45332
-0.0701306
-0.273454
0.820532
1.39353
-0.572183
1.83276
0.590594
1.8404
-0.302895
0.0904527
1.53659
-0.1342
-0.44534
4.38992
-0.324575
1.54308
0.283862
0.393415
0.393096
-0.106638
-0.0309906
-0.0786953
0.18654
0.013376
1.90709
0.173477
0.533943
1.64419
4.63431
0.5131
0.284538
1.00218
-0.0590901
1.79282
2.58974
0.799399
0.507542
0.385061
0.342273
-0.744811
1.95267
2.53498
0.231262
1.30298
1.04062
0.193885
0.628683
4.94436
1.7348
3.46732
3.34131
2.78249
0.530177
0.354721
0.196545
1.40141
1.81405
-0.323888
1.42082
1.03234
2.71517
-0.483554
1.85826
-0.342811
0.237063
-0.228213
0.893609
0.962523
3.485
1.11959
3.09673
1.80401
1.50653
-0.648026
2.90283
1.09872
0.33178
0.304053
0.709725
0.354651
0.242079
0.114558
1.54192
0.926822
1.31909
1.27081
0.494795
-0.246279
0.779655
-0.689284
0.231221
0.850134
3.59336
-0.774821
-0.980486
1.0793
1.67167
0.637498
3.12453
1.39906
-0.491131
-0.305167
0.708389
1.53288
2.40575
1.5596
0.0604837
-1.02596
2.89582
-0.307125
0.00604559
1.1791
1.42483
1.24839
-0.321398
1.03476
-1.00109
0.157602
0.0685045
-0.553326
1.01783
0.254117
1.97908
2.76181
1.69394
0.782775
3.94733
-0.745121
0.923509
0.0909604
0.277954
1.26729
1.83218
2.2103
0.781528
2.99312
0.34037
3.57687
0.370689
0.352977
0.177575
-0.278744
-0.271847
0.278202
0.122877
1.64889
0.26994
2.65155
0.422815
0.206452
0.602361
2.42775
0.924729
2.76638
0.324051
2.62948
0.0664961
1.4384
0.423328
-0.709608
-0.108654
0.182003
-0.663049
0.00788777
2.26135
0.735388
1.77502
-0.639422
-0.174382
1.32143
2.1904
1.94413
2.33087
1.2849
-0.44315
1.49039
3.25183
-1.22013
-0.0941551
2.32827
1.7641
0.805703
0.44185
0.198519
2.79457
0.597159
0.414797
3.20515
-0.612079
-1.42367
0.159587
0.283725
0.141515
-0.16526
0.260433
0.565727
2.92188
0.534705
1.99293
-0.172178
0.655546
0.627009
1.38606
-0.0583553
2.90203
-0.131904
-0.487648
0.0634344
0.00877992
-0.564595
0.367067
-0.51475
0.470428
0.215682
0.787425
3.28515
-1.1497
1.00771
2.84776
0.535516
1.59085
0.708368
2.73249
1.75477
3.60791
5.10499
1.69517
0.316802
2.95264
0.0733964
2.56555
1.38004
4.42005
1.08493
-0.615729
2.35084
2.31593
-0.238331
0.383591
-0.0950609
-0.072326
0.277629
0.188086
3.47266
0.264609
-0.140735
1.02266
-1.36395
1.97848
-0.122468
1.2732
-0.151058
0.415694
-0.00262409
0.443991
0.939964
-0.0376188
4.63302
0.529861
-1.01898
1.74071
-0.524954
1.14322
2.06785
2.45566
3.16508
4.14008
0.609859
1.06976
-0.722427
-1.26691
0.739887
0.555758
4.19053
-0.055212
0.31936
0.780132
0.767602
1.4114
0.294492
-1.60561
-0.147496
1.98607
-0.177223
1.99833
0.681412
-0.391615
0.479849
-0.304504
2.07005
0.285662
1.92171
2.51573
2.1087
0.163204
2.08888
-0.226802
-0.394155
-0.398686
-0.441294
-0.42922
-0.215287
0.624178
1.607
-0.370188
0.552594
0.666695
0.334136
2.1084
1.65559
1.9334
0.367252
1.61032
1.51685
1.86508
1.814
1.86275
0.26564
0.748178
0.586415
1.88379
1.14459
1.85252
-0.37322
2.09465
0.2249
0.408332
2.01187
1.75213
0.325304
0.488455
1.48629
2.80621
1.03796
2.78441
1.61304
0.411838
0.280993
1.69685
0.372171
1.68175
0.0499967
-0.760629
4.98455
1.3972
-0.446094
1.77605
1.87883
1.0924
-0.129397
3.71892
5.21523
0.865062
0.816649
0.553968
-0.130842
-0.529216
-0.26479
0.192358
0.139458
0.685573
0.530277
2.0838
-0.471297
0.473531
-0.568466
0.694494
0.764249
2.49964
1.81667
3.98695
0.681743
0.580945
-0.20439
2.73785
1.23384
0.230916
-0.309266
-0.356038
0.588409
2.17048
0.0117285
-0.238642
-0.875637
1.08471
-0.443763
1.34441
5.81126
3.26779
0.869008
1.0456
-0.164271
1.12182
2.27694
2.5254
1.08919
0.206036
-0.315056
0.72458
1.20829
-0.61251
-0.0628286
-0.489485
-0.129236
0.234048
-0.290874
0.980459
-0.0825843
-0.159294
0.434294
0.592529
-0.363503
0.682848
0.494292
1.55829
5.3939
-0.133169
0.802638
4.67358
0.823796
-0.505869
0.177437
0.494769
1.55093
0.515814
-0.241878
0.184659
3.36278
1.03967
3.13995
1.28769
0.431539
-0.202357
1.01396
1.10315
3.44093
0.884509
0.56546
0.703697
-0.234559
1.30211
-0.439966
-0.33986
-0.410277
1.48085
4.41729
0.888335
0.591864
0.373258
1.31251
0.616959
0.152363
3.52476
0.865363
0.0773007
1.5803
0.45103
0.54713
0.685776
0.389193
2.16643
1.31874
2.58651
1.27639
1.10449
-0.29833
0.180633
-0.00413999
-0.0794612
0.107139
0.627374
1.97177
-0.153849
2.40427
1.90364
0.474988
-0.0443133
0.201708
-0.27943
0.544638
-0.265608
0.289389
0.994451
1.69969
-0.156905
0.821529
-0.049161
0.285889
-0.275772
-0.622075
-0.369124
0.373241
1.39139
6.23191
-0.522386
0.679611
0.666256
0.137997
0.431518
0.151418
0.369009
0.389218
0.884217
0.845837
0.11769
0.866783
0.230446
0.139422
0.0774495
0.290265
0.0282748
0.150681
0.124945
0.00065911
-0.0258523
2.02655
0.432919
1.37078
0.464425
0.729228
0.592739
0.503079
0.215857
0.129964
0.231711
0.350305
0.124082
0.336185
0.167696
0.27918
0.499164
0.407996
0.442561
-0.023578
0.0508372
0.517785
0.17011
0.494597
0.302575
0.405148
0.59248
1.18648
3.76458
1.25313
0.100943
2.6788
0.839357
0.886115
2.82504
1.56899
1.04861
2.52464
2.33659
1.11933
5.20089
-1.00067
0.858986
0.457854
0.798516
1.80786
-0.590824
1.83298
0.603001
2.09913
-0.517795
2.24831
0.242516
2.29423
0.0641639
0.882934
0.459256
0.0202482
0.449072
0.102797
-0.56118
-0.0332752
0.516108
1.6894
-1.14086
-0.88516
2.00271
1.49495
-0.36377
5.76687
1.62437
0.374746
0.521589
0.22625
1.34317
1.34013
3.9332
-0.368606
0.61998
-0.855652
1.52699
1.76316
0.555885
0.208061
0.868422
0.0621251
1.23103
2.45891
1.75985
3.34544
-0.298736
1.55674
0.299338
0.441912
0.45937
0.443975
0.372661
1.74554
-0.077312
1.50967
0.0709538
2.43644
1.56195
0.632166
2.90569
1.37626
0.805773
0.921334
1.36798
-0.374996
-0.168107
1.58512
0.050757
-0.0816384
0.781813
-0.271647
0.902085
0.165116
2.74361
0.519953
1.36202
-0.0772402
0.190012
1.776
-0.138644
2.03007
0.340098
-0.596821
2.4309
0.873453
1.09992
1.86861
0.0943809
2.23529
2.61906
0.415661
1.0645
1.05049
0.970913
3.08176
1.65291
3.76752
2.64828
0.978857
1.96502
-0.773162
-0.589634
0.467142
0.0756413
0.204143
-0.337198
0.862458
0.496837
0.441281
-0.169564
0.644845
0.46623
0.190633
2.57392
0.29324
0.425687
0.931823
4.16145
2.01681
0.0510733
2.00344
1.24035
-0.17661
0.570905
0.00906474
-0.207389
0.413436
0.691633
0.229156
-0.472265
-0.243759
-0.489831
0.0170868
0.223884
0.00403432
0.749929
-0.857658
1.1556
1.53454
-0.0356279
-0.477082
2.62611
0.437629
1.04369
-0.275916
-0.214503
0.0986301
0.236051
-0.197602
1.26813
0.612554
-0.0892927
1.47395
-0.503253
0.917479
0.33914
0.760802
0.326143
1.70901
-0.352657
2.18333
1.54942
1.41391
0.57218
0.58429
2.33828
-0.394247
-0.521819
0.108041
1.66662
-0.273894
0.665145
-0.00939602
-0.00877367
3.46899
1.15686
8.46375
3.57625
8.45746
1.29487
1.98017
1.1929
0.890575
1.69566
1.77172
2.7314
-0.00905694
0.315694
0.475026
-0.337706
0.490043
8.24026
1.63462
3.73198
-0.339652
0.909178
0.127293
0.113524
1.22808
2.11978
3.23989
1.20885
0.236489
1.49474
-0.347391
0.295854
-0.144168
-0.194932
0.428337
1.19656
0.32259
-0.238964
-0.0719282
0.0316143
-0.118475
-0.251263
-0.121944
0.173426
-0.293724
-0.339756
0.135426
-0.306102
0.278424
0.823689
0.519188
0.408875
-0.906881
0.163128
0.832296
1.58344
3.76587
0.0542042
3.3724
2.73265
6.26881
0.0640288
0.678961
0.974712
0.693475
0.435616
0.319004
3.09077
0.770909
1.60311
-0.283341
-0.038491
-0.731743
6.26815
0.405963
3.72773
1.41
0.466324
2.05797
1.71377
2.02017
1.80173
-0.0674133
0.245374
-0.627952
-0.0148507
-0.126553
-0.103109
-0.143713
-0.574264
0.500769
-0.119079
0.446041
-0.0994474
-0.0948287
0.429822
0.559526
0.0904154
-0.476086
0.211692
-0.301516
1.40198
3.62181
1.43807
1.77727
2.42306
3.03127
-0.743212
-0.313003
0.0343765
0.568474
-0.269916
-0.658775
1.45545
4.52832
0.368042
1.83953
-0.379782
-0.245407
-0.265411
0.292236
3.60481
2.73464
0.0785158
-0.367336
-0.632817
0.769279
0.0103247
2.66778
0.708625
2.69866
-0.171233
-0.325799
6.60465
-1.09467
2.3137
4.46349
2.80363
-0.151098
3.73637
2.49555
2.96313
-0.731142
-0.888609
-0.124733
-0.599047
-0.22335
0.101151
0.276578
1.83592
0.793242
2.94519
0.848164
0.455695
0.698769
0.474159
0.734733
0.943259
0.406761
0.153214
0.560831
-1.0864
1.0151
-0.568023
-0.238747
1.62355
0.114181
3.90521
3.20295
0.820692
4.70857
0.0250995
8.25383
-0.555811
1.76932
-0.701325
1.93075
6.11973
-0.363084
0.725176
0.0187883
0.332116
-0.398422
0.676008
-0.154797
-0.461609
-0.504721
19.875
1.62788
4.47461
4.27185
0.622679
-0.55765
0.259017
0.348049
1.24553
-0.62685
4.60922
3.45182
0.58184
2.3215
0.726294
-0.19139
0.351822
0.594587
2.60934
2.6916
1.14852
0.119631
0.753204
2.45473
2.53731
1.7271
-0.465819
-0.165677
0.726658
0.0670883
4.27085
0.830775
3.81968
0.295645
-0.0897904
-0.631947
1.13857
-0.187561
4.72645
0.377303
0.529957
1.71672
2.15036
0.111331
1.28349
5.61537
-0.0697925
-0.221624
0.391291
-0.240927
2.63982
0.911578
0.64645
-0.327818
0.0614517
-0.141828
1.94014
0.509005
-0.120971
0.201696
6.26864
3.92666
1.15125
-0.623054
0.262882
-0.318302
-0.130619
0.866875
-0.303535
-0.0782527
0.757269
1.01201
0.635051
0.870801
0.263297
1.83035
-0.0830397
2.16886
0.641468
1.56317
-0.297374
1.16832
1.61942
-0.389708
0.327881
0.298113
1.23143
0.700452
0.133223
0.0612742
1.34662
-0.314319
1.26813
0.200972
-0.306504
2.6107
4.58135
0.407425
-0.104531
0.703366
-0.00500508
0.366965
-0.210035
-0.697794
1.36209
0.912831
0.441336
2.96472
2.22546
0.120039
1.77013
-0.0834024
-0.0298905
2.69179
0.0637884
4.31518
0.262444
0.955338
-0.273923
-0.581933
-0.275338
1.33065
1.23333
2.02076
0.858885
-1.18648
5.04192
1.88308
0.180393
1.20533
1.08164
0.774824
-0.372076
1.50148
0.0270001
-0.0361513
-0.430081
0.391688
0.43558
1.68539
0.455916
-0.395613
0.226617
-0.30168
-0.0750267
-0.706007
0.277229
0.425903
-0.379722
-0.342394
-0.323073
-0.439608
-0.603185
-0.117802
0.648943
-0.169363
-0.624614
0.0798364
1.07867
-0.0578164
0.945554
0.284864
0.159262
2.03628
-0.415976
-0.478356
-0.397816
-0.0968948
-0.11773
-0.423216
0.800339
-0.57314
-0.201579
1.98078
1.49773
0.174065
0.98634
1.72193
0.673229
0.834495
0.894117
1.11723
0.842344
-0.343996
1.99545
-0.326128
0.390219
0.0422649
-0.213956
0.00762997
0.655207
-0.501259
0.854635
-0.365878
1.14037
3.99057
0.412649
2.21847
3.33463
1.01798
1.47225
1.12157
2.91698
2.97415
0.986959
0.570348
3.14202
0.359901
0.881981
2.99998
1.73764
0.772479
2.36395
1.07982
0.66885
1.1453
0.911681
2.35242
2.79444
4.97969
4.03635
3.79196
2.74572
-1.05427
-0.656364
11.1273
7.78457
4.55888
1.72075
4.03441
9.22261
11.1394
8.37833
2.69849
-0.397166
-0.330068
-0.0569458
-0.235578
3.95428
1.12287
0.227556
0.221396
0.420066
0.473534
0.262191
5.64518
3.04787
2.05448
1.36529
0.169751
0.603305
0.684433
0.561036
0.121304
0.432125
-0.362861
-0.506731
-0.409077
-0.268311
-0.0296757
-0.534814
0.58073
-0.49557
1.92555
0.512492
-0.545067
0.0611944
-0.37919
1.62741
0.0519747
-0.492917
-0.141585
-0.550639
0.634694
-0.416113
-1.06457
1.829
6.67307
7.37557
2.9904
2.32573
5.71245
-0.284122
-0.309464
-0.667957
1.12635
-0.476305
-0.409523
0.0371818
0.107738
0.753455
2.77183
0.600825
1.77066
2.28308
1.02657
-0.192958
6.24759
3.23818
15.7748
3.71805
1.85843
4.75659
0.138891
0.353954
0.064818
1.88921
5.26843
0.57602
3.15906
0.668285
0.216896
0.156453
-0.116019
4.7471
2.24569
-0.0076794
13.7914
1.61437
3.30281
6.41151
3.19176
1.95819
4.97541
11.69
2.05839
5.02693
1.36749
-0.289596
-0.505447
4.40186
0.391229
-0.157376
0.0420367
2.73813
1.00987
2.86138
1.62618
1.81919
0.381799
1.05634
5.05811
3.67135
9.81834
4.27039
6.99009
7.02451
4.73861
5.38583
1.98964
1.59189
8.61288
2.62683
5.81514
0.155397
0.811935
0.327472
9.45937
2.2358
2.78619
4.14223
4.45641
8.59782
-0.325105
-0.0519385
-0.0374489
-0.325085
0.452542
0.383974
0.450213
10.7144
1.78648
0.87249
2.89998
2.45364
2.82293
1.80139
1.69543
1.87389
2.09467
1.76816
1.75152
0.424814
-0.176611
-0.0625011
-0.332422
-0.229294
0.230473
0.61226
0.141455
0.414329
-0.02961
-0.240609
0.559838
0.416128
-0.107511
0.949451
0.0550312
-0.33895
-0.357428
0.217905
-0.144787
0.254268
0.590453
7.95906
0.534711
0.0916076
8.28512
0.253953
-0.119829
0.424482
0.956797
2.65874
1.13036
2.93705
1.30423
0.781107
-0.0250759
2.89604
0.363579
2.53223
2.93974
1.7575
1.17076
3.20569
1.09853
3.60348
2.24513
0.0160912
-0.191392
0.465088
0.483694
-0.269157
0.723751
1.11064
-0.232007
-0.0443402
-0.540794
0.978102
0.443943
0.610023
-0.279365
0.0793503
0.111978
0.672154
0.46218
1.03916
0.897076
2.50522
5.16175
1.88144
1.15199
3.27809
3.00676
-0.666435
1.05592
0.278651
1.11621
2.7657
0.189975
1.65028
0.76734
2.21978
0.495849
-0.240518
7.23259
2.15637
0.156793
1.00983
0.856973
5.96576
-0.0629501
4.38778
0.970615
0.120652
-0.216874
1.62122
1.0292
0.249338
-0.22131
0.311731
0.155653
0.0662801
0.297524
-0.0200579
1.17835
0.0281951
1.911
0.823754
2.01609
1.72159
0.936269
-0.558889
0.452069
0.00147974
0.0666571
-0.157961
0.809194
0.203044
1.38913
1.89311
0.603327
0.384626
-0.420178
0.0840992
0.172887
-0.489509
-0.540796
0.598599
1.83906
0.976995
0.42083
-0.160296
0.12781
-0.465415
-0.056699
0.699252
0.390213
0.317499
2.55212
0.0660547
1.10685
1.5064
0.266719
-0.27233
2.11413
-0.418954
0.162149
1.50014
0.292971
0.429018
0.617266
2.00291
1.02472
0.654076
-0.353451
2.9392
0.853443
1.13791
2.84214
2.62072
1.92705
0.402356
1.55374
3.12724
0.387319
1.21911
0.533589
0.419684
-0.139834
0.403668
-0.519925
-0.29926
0.143636
-0.324249
-0.177592
-0.465795
-0.421112
0.0750614
0.612832
-0.2525
0.174716
0.725053
0.200436
0.406584
-0.111293
0.0241136
-0.130259
-0.386355
-0.389921
-0.428137
1.1065
4.15738
3.18975
3.1718
1.89899
0.614249
-0.291874
1.16744
0.0119856
0.158331
-0.184788
1.65479
1.36968
0.862023
2.79196
0.830282
0.594455
0.616085
2.70944
1.83309
2.56333
3.73292
3.79922
2.31286
-0.518457
0.112241
0.12898
-0.249442
0.844614
2.31262
1.33079
3.81371
-0.111678
0.183228
0.688391
0.93902
0.646313
-0.181338
0.312374
-0.0255691
0.167922
-0.463489
0.479882
0.407528
0.290405
-0.27689
-0.188723
0.431456
0.29451
0.513785
-0.169432
0.692269
0.0454188
-0.0816853
-0.664447
1.23144
1.29583
0.691515
-0.219368
0.406627
0.489634
-0.0957904
-0.501205
0.441046
-0.491665
1.98019
0.37891
2.33756
1.30865
2.76485
5.13467
0.0676575
2.02526
1.76229
-0.151191
1.28794
0.58291
0.574596
0.228506
1.17437
0.420403
-0.166292
1.06727
0.460674
-0.330844
1.37849
0.202867
2.80989
0.0598738
-0.102405
0.429555
0.871882
3.36172
3.28559
2.19878
0.586979
0.988264
1.00217
3.56261
-0.757207
1.06236
1.55158
1.34311
1.29138
-0.198793
1.73375
1.96156
-0.507516
0.973922
2.50697
0.504751
0.505685
1.56573
-0.236874
0.4727
-0.758276
0.888652
0.852074
0.226328
0.308879
-0.290589
0.266773
0.74316
1.52522
-0.700505
0.54172
-1.3465
0.796139
-0.379757
-0.919769
-0.409514
0.640468
2.35239
0.251191
1.66583
1.86098
0.576829
-1.01256
2.15122
0.689013
4.55165
0.145299
1.87828
0.443727
0.0399436
0.410732
-0.412646
-0.840766
1.75772
1.1758
1.01138
1.65946
0.858978
-0.240128