# vtk DataFile Version 4.2
vtk output
ASCII
DATASET POLYDATA
POINTS 2562 double
-0.814579 1.92113 1.32396
0.96485 1.94188 1.29856
-0.715211 -2.1141 -0.0442638
0.952777 -2.24768 -0.0656318
0.0603387 -1.29453 3.2588
0.0157388 1.96823 2.78255
-0.0136244 -1.26321 -3.42031
0.00458595 1.05449 -3.39274
1.67949 0.0114949 -2.53149
1.8832 0.2089 2.32547
-1.48176 -0.065005 -2.48649
-1.69245 0.325283 2.31519
-1.51959 1.43928 1.934
-1.65947 1.06787 2.99813
-0.799804 2.63773 2.20868
0.926396 2.64065 2.1992
0.055372 2.26859 1.38104
0.772987 0.95427 -2.39358
-0.569807 0.889776 -2.41145
-1.26767 0.757608 -3.41155
-0.955956 0.405448 -1.81519
-1.28193 -0.0364024 0.386287
1.70775 1.17109 2.97019
1.70434 1.52627 1.93401
-1.24985 -0.69738 3.12974
0.0310528 -0.29155 3.56334
-0.970225 -0.806234 -1.69475
-1.28405 -1.06477 1.34282
-0.0124157 0.00256011 -3.97442
-1.40177 -0.902016 -3.4562
1.20121 0.501706 -1.91163
1.60071 0.891858 -3.5023
1.49476 -1.11173 1.33894
1.4272 -0.688862 3.20644
0.698142 -2.00405 1.7036
-0.538238 -1.95514 1.71307
0.100912 -2.79229 -0.165575
-0.317113 -1.71884 -1.59262
0.510788 -2.02971 -1.44107
1.60067 -0.901661 -3.50464
1.15008 -0.989294 -1.43926
1.49356 -0.036032 0.380619
-1.15721 1.82479 1.63004
-1.28994 2.05936 2.11234
-0.852943 2.33663 1.84525
-1.7679 0.695413 2.75174
-1.65316 1.41743 2.44134
-1.6828 0.871114 2.16375
-0.507422 2.5821 2.5404
-1.29793 2.06252 2.56355
-0.962738 1.57432 2.94094
-0.310677 2.60486 1.88482
-0.44774 2.14645 1.38888
0.558517 2.57555 2.53865
0.0243464 2.83227 2.23462
0.571828 2.17974 1.34285
0.385936 2.63188 1.85783
1.00163 2.35886 1.84
-0.1045 1.01627 -0.213122
-0.405759 0.877969 -0.294593
0.586989 0.874003 -0.357918
0.27429 1.02303 -0.224126
-0.454817 1.06702 -2.94538
0.0695187 0.945849 -2.35843
0.565479 1.08361 -2.92548
-0.898976 0.738208 -2.27884
-0.754871 0.998475 0.251536
-0.870895 1.01413 -3.52293
-0.991728 1.00713 -2.98088
-1.41746 0.32527 -2.25711
-1.28691 0.69638 -2.70222
-1.46672 0.293009 -2.95873
-1.18729 1.13702 1.05784
-1.21789 -0.0904784 -1.82875
-0.909665 0.145614 -0.895657
-1.49416 0.782284 1.5045
-1.63238 0.279376 1.76228
1.54744 2.13276 2.13923
1.35379 1.86045 1.64273
1.04866 1.59614 2.93215
1.51984 2.09219 2.60077
1.87107 0.972357 2.10113
1.84156 1.58512 2.45651
1.84207 0.614632 2.72357
-1.02527 0.398095 3.25095
0.0107043 0.917297 3.17743
-1.62013 -0.130833 2.73328
-1.6006 0.0581099 3.24796
0.0631109 -1.0105 3.70223
-0.886176 -0.579561 3.54707
-0.651294 -1.09933 3.30777
-1.36638 -0.48606 0.998153
-1.57327 -0.254793 2.04053
-1.4325 -0.477767 -2.30198
-1.06478 -0.558253 -0.891101
-1.00709 -1.71099 0.558607
-1.1709 -1.24419 0.0713482
-0.922158 -1.74282 -0.463932
-1.43463 -0.0554243 -3.54882
-1.47062 -0.449854 -2.98859
-0.0291358 0.809059 -3.8394
-1.00807 0.512477 -3.93579
-0.915853 -1.20542 -3.56414
-1.01644 -0.550275 -3.87344
-0.0131153 -0.940492 -3.78455
1.22527 1.03504 -2.97706
1.01025 1.02472 -3.5112
0.921119 0.976176 0.14304
1.12288 0.831487 -2.3177
1.67055 0.411519 -3.03024
1.53025 0.805093 -2.78289
1.63724 0.43227 -2.32082
1.21862 -1.87306 0.488119
1.17255 -1.65666 1.55725
0.902682 -2.23775 0.712114
1.78558 -0.202652 2.80561
1.55426 -0.84678 2.42146
1.74416 -0.366652 2.04237
0.385718 -1.63117 2.65269
1.05096 -1.33513 2.64465
0.744929 -1.14894 3.34554
0.338868 -2.42226 0.636404
0.506815 -2.6138 -0.163563
-0.253109 -1.58181 2.63148
0.0688548 -2.06226 1.78371
-0.240042 -2.51141 -0.142122
-0.145229 -2.35651 0.647369
-0.672198 -2.12241 0.759137
0.318986 -2.64369 -0.873191
0.722456 -2.34833 -0.788183
-0.535056 -2.23429 -0.806474
-0.0990806 -2.63239 -0.876315
0.389045 -1.26379 -2.84868
0.102321 -2.23747 -1.40206
-0.394512 -1.26319 -2.89698
0.878664 -1.43502 -1.57535
1.15291 -1.9073 -0.439702
0.910755 -1.19774 -3.55899
1.07181 -1.0655 -2.95647
1.60813 -0.425174 -2.33725
1.45027 -0.767344 -2.78752
1.65898 -0.412422 -3.03387
1.35429 -1.39518 0.0646113
1.41306 -0.0293913 -1.84714
1.30829 -0.609987 -0.775278
1.65087 -0.554633 1.00076
1.80367 0.230581 1.68357
1.00034 -0.59307 3.555
1.74103 -0.0419317 3.32634
1.09185 0.349681 3.27125
-1.02075 -1.56325 1.58187
-0.906573 -1.26229 2.61916
-1.31831 -0.78949 2.38012
-1.00597 -1.11259 -2.99672
-0.734357 -1.14615 -1.88903
-1.3403 -0.844289 -2.76858
1.62348 0.0081101 -3.56935
1.08861 -0.562899 -3.78599
1.08725 0.540456 -3.80064
1.70709 0.833272 1.41451
1.11431 0.196475 -0.920718
1.39969 1.15334 1.0417
-0.964753 1.91109 1.45159
-1.04925 2.10799 1.75225
-0.846181 2.11294 1.57768
-1.44607 1.74866 2.04178
-1.24931 1.97045 1.89824
-1.3372 1.65924 1.79428
-0.841277 2.52439 2.02424
-1.07457 2.26631 1.97259
-1.05602 2.38725 2.17242
-1.69987 0.483992 2.50408
-1.70864 0.80146 2.4638
-1.69631 0.564595 2.26335
-1.69137 1.25929 2.75656
-1.7332 1.01742 2.65487
-1.81612 0.871308 2.92636
-1.6441 1.18264 2.0461
-1.68009 1.1363 2.31254
-1.61389 1.46832 2.16965
-0.237631 2.27447 2.63474
-0.744657 2.10554 2.68341
-0.43853 1.80904 2.84634
-1.04369 2.47724 2.38652
-0.943779 2.38028 2.53835
-0.684881 2.67526 2.39213
-1.351 1.33886 2.97578
-1.19223 1.85002 2.77418
-1.54355 1.61121 2.84392
-1.5327 1.79888 2.28979
-1.60187 1.77594 2.54109
-1.31869 2.09838 2.34304
-0.640651 2.28805 1.65943
-0.682171 2.0286 1.35195
-0.54925 2.67824 2.05267
-0.609063 2.51727 1.88425
-0.202002 2.23576 1.39051
-0.38906 2.41424 1.68288
-0.106671 2.48507 1.67634
0.278468 2.2772 2.63423
0.0174606 2.64406 2.54
0.479984 2.81781 2.22877
0.293727 2.8303 2.41653
0.763923 2.66181 2.387
-0.257022 2.82893 2.4186
-0.4407 2.82172 2.23146
0.817001 2.04562 1.32192
0.770218 2.3073 1.63351
0.995973 2.13116 1.56198
0.199569 2.49119 1.66963
0.488294 2.42726 1.65755
0.319451 2.25082 1.36576
0.993335 2.55403 2.01277
0.724512 2.52163 1.86498
0.628774 2.67062 2.03829
-0.180169 2.74012 2.06617
0.239031 2.74688 2.05993
0.0380829 2.66455 1.86025
-0.478589 1.76558 0.959327
-0.67309 1.68987 0.979692
-0.046267 1.91432 0.963566
-0.261179 1.85878 0.963247
-0.490712 0.702729 -1.92982
-0.262275 0.931947 -0.297139
-0.325944 0.749593 -1.92556
0.816219 1.70237 0.934816
0.618876 1.7836 0.908798
0.515595 0.777061 -1.90739
0.443189 0.931153 -0.338661
0.697555 0.742603 -1.93369
0.402241 1.87553 0.93051
0.181932 1.91917 0.953836
-0.238566 1.06977 -3.20062
0.0289975 1.08201 -2.9286
0.291221 1.07408 -3.19375
-0.316205 0.923048 -2.39532
-0.197993 1.02885 -2.6798
-0.552876 1.01124 -2.70968
0.724595 1.06393 -2.67154
0.307912 1.04549 -2.66026
0.483983 0.961178 -2.36944
0.0835108 1.07049 -0.152118
0.252018 0.793293 -1.85854
-0.0767758 0.783047 -1.8735
-0.560121 0.883703 -0.139279
-0.83385 1.6515 1.05524
-0.75183 0.832231 -2.37669
-0.580916 0.615051 -1.78548
-0.665875 0.44461 -0.996394
-0.606549 0.504478 -1.42926
-0.989715 0.595604 -2.11196
-0.427707 1.04352 -3.45409
-0.674353 1.05093 -3.23213
-1.16263 0.959534 -3.22662
-0.978053 1.02344 -3.26785
-1.13426 0.965972 -3.54663
-0.77567 1.04579 -2.97554
-0.787646 0.978962 -2.71701
-1.46951 0.136138 -2.38342
-1.46029 0.350038 -2.61203
-1.48798 0.0769803 -2.69337
-1.23927 0.603796 -2.33637
-1.40197 0.529273 -2.48386
-1.25625 0.409392 -2.12989
-1.4152 0.517825 -3.20872
-1.40875 0.544446 -2.84982
-1.28093 0.751207 -3.06995
-0.963287 0.898231 -2.66151
-1.14595 0.884992 -2.89457
-1.12071 0.765489 -2.52201
-1.03275 1.61157 1.21614
-0.822565 0.517405 -0.392544
-0.983556 1.13759 0.707631
-1.2303 1.52455 1.4094
-1.37316 1.35467 1.6083
-1.44777 -0.0596446 -2.21825
-1.34237 0.107314 -2.05833
-1.09219 0.0990522 -0.197553
-1.02741 0.00393439 -1.46961
-1.01086 -0.165069 -0.955489
-1.15576 0.195295 -1.87116
-0.877394 0.233413 -1.35659
-1.67654 0.591066 1.98852
-1.68555 0.321534 2.10077
-1.52097 1.13278 1.77273
-1.62786 0.8674 1.88661
-1.46767 0.182218 1.28057
-1.58218 0.53954 1.64429
-1.39002 0.394993 1.06673
-1.04013 0.60954 0.257406
-1.25754 0.559827 0.744718
-1.35283 1.00091 1.30879
1.22838 2.13145 1.75678
1.13335 1.93487 1.44367
1.24321 2.41423 2.17908
1.25956 2.29207 1.98415
1.5469 1.72446 1.80719
1.47354 2.01904 1.92073
1.65289 1.83995 2.06449
0.483864 1.81629 2.84367
0.828368 2.11149 2.68133
1.6724 1.68624 2.81192
1.3381 1.87771 2.77318
1.45441 1.40173 2.96843
1.06199 2.38171 2.54776
1.20816 2.50408 2.39632
1.8905 0.521199 2.21713
1.87123 0.860182 2.38407
1.88292 0.353538 2.50176
1.79345 1.58117 2.19484
1.86062 1.29578 2.28048
1.83125 1.29263 2.02618
1.83117 0.903818 2.90369
1.8337 1.17159 2.57727
1.81623 1.44785 2.74123
1.58479 2.18012 2.36855
1.80676 1.88642 2.58698
1.74748 1.89677 2.33314
-0.561586 1.26311 3.04214
0.0122782 1.54422 2.97648
-1.42393 0.817511 3.15346
-1.0561 1.01671 3.11746
0.0224569 0.219658 3.36135
-0.5725 0.625749 3.22337
-0.526429 -0.02586 3.4311
-1.67822 0.138771 2.48549
-1.6772 0.274191 2.75106
-1.4211 -0.333833 3.21702
-1.62219 -0.0472568 3.02052
-1.46618 -0.402953 2.94037
-1.68244 0.460174 2.95017
-1.66033 0.643676 3.10271
0.0616302 -1.19213 3.54185
-0.314544 -1.07889 3.53304
-0.216817 -1.24256 3.32114
-0.476275 -0.459366 3.56877
-0.393124 -0.796324 3.56607
0.04996 -0.707996 3.61832
-0.99237 -0.948102 3.29863
-0.82227 -0.905926 3.52919
-1.11818 -0.666764 3.41643
-1.37244 0.205384 3.29076
-1.24681 -0.288543 3.42638
-0.961967 -0.193278 3.48592
-1.63385 0.0138606 1.89132
-1.67225 0.0704518 2.2245
-1.36024 -0.226994 0.736606
-1.50305 -0.0627014 1.45431
-1.40652 -0.638205 1.74892
-1.47894 -0.344301 1.60747
-1.33878 -0.789294 1.19334
-1.46961 -0.267389 -2.41352
-1.36904 -0.258899 -2.07567
-1.00407 -0.676411 -1.36874
-1.20505 -0.431031 -1.8755
-1.28298 -0.608122 -2.15045
-1.06686 -0.297479 -1.45377
-1.17318 -0.392092 -0.312857
-0.866732 -1.95152 0.206614
-1.01867 -1.75962 0.0256007
-0.836923 -1.98118 -0.210858
-1.20527 -1.17589 0.738552
-1.10299 -1.50037 0.338573
-1.12585 -1.42635 0.931417
-0.924556 -1.37048 -0.850299
-1.06852 -1.51616 -0.211305
-1.07486 -1.15328 -0.583194
-1.29601 -0.636453 0.12546
-1.24434 -0.923923 -0.283885
-1.2816 -0.901769 0.471341
-1.48604 -0.0787241 -3.00476
-1.48388 -0.220983 -2.71086
-1.41074 0.434136 -3.53095
-1.46241 0.159409 -3.27933
-1.447 -0.6772 -3.23611
-1.47117 -0.308929 -3.28637
-1.43102 -0.567706 -3.52464
[...]
POINT_DATA 2562
SCALARS Mean_Curvature double 1
LOOKUP_TABLE default
1.19404
1.33749
0.490898
1.47694
-0.91518
0.403924
0.446294
0.46145
0.382117
0.581594
0.480135
0.542886
0.628828
0.46417
1.83505
1.31516
0.780972
0.645267
0.305797
-0.242661
0.400657
0.71241
2.22449
0.026185
0.58252
1.07654
-0.138436
0.914876
0.122402
3.76347
0.74579
4.76479
0.340245
-0.578302
1.98413
2.85574
18.7638
-0.160381
1.30611
7.78681
0.128254
-0.0654021
-0.22915
0.427581
-0.0596543
1.5198
0.26223
0.469026
1.18848
1.09403
1.1268
0.0130196
-0.0310649
1.32787
3.53124
1.35552
2.45733
-0.634994
0.405768
0.244495
0.242402
0.431539
0.934071
0.189451
0.591751
0.8971
0.827485
0.940088
2.07263
5.30575
1.09109
0.649515
0.387482
1.09997
-0.291497
0.487236
1.02354
2.06291
-0.154673
0.821822
1.55433
0.691162
1.43547
0.129864
-0.550677
0.763116
1.66035
7.20444
7.0564
1.35797
-0.173807
-0.0419634
0.785142
3.74368
-0.260116
0.103284
0.0791373
0.55473
0.965912
0.265638
1.19423
4.19822
1.37247
1.43982
-0.248331
0.97149
0.952684
0.76871
1.29725
0.449339
1.61911
1.94219
1.09864
0.692484
4.01368
0.35625
0.42778
-0.169607
1.43002
1.15689
1.60981
2.21276
4.66429
0.0804237
0.599384
-0.0170975
-0.422773
0.421633
1.64969
-0.677882
1.75893
5.25448
-0.103604
0.797494
0.254789
-0.110292
0.146822
4.66986
0.644878
2.055
0.564077
0.659393
-0.111847
0.471865
-0.162089
1.1848
0.156709
0.789836
6.9759
-0.543278
1.59518
0.21732
-0.321588
0.113958
0.0136311
1.70647
1.09708
-0.383365
-0.450496
0.523648
-0.308823
0.692339
0.938354
1.00835
0.323998
1.77028
1.08748
-0.350779
1.96323
1.38316
-0.234389
-0.133605
-0.231394
0.358286
0.44252
-0.68037
3.77801
2.37021
0.439238
1.65658
-0.651385
-0.257474
-0.0116646
4.41983
1.19877
1.00448
0.00163569
0.403529
6.80413
0.0200721
4.10595
0.197398
-0.022915
1.44009
1.10209
0.398425
0.838701
0.18292
0.265529
-0.66004
0.237087
6.63198
5.12017
1.61815
5.14288
5.79391
0.540195
0.1722
0.00360862
-0.180259
0.0531401
0.88488
4.03054
0.00654777
1.14498
-0.225087
-0.141134
2.37014
0.140908
0.712877
0.703765
0.523298
0.44917
0.332642
0.24386
0.424083
0.597579
0.358203
0.326196
0.350236
0.677166
0.59647
0.177505
0.851371
0.153653
0.175179
0.494203
0.809103
1.62732
0.357422
0.397323
0.533646
0.318676
0.324726
0.19369
0.879394
0.405215
0.289879
-0.343807
-0.0395806
1.63356
0.91184
0.222545
4.49261
1.0314
6.47996
1.05541
1.03807
1.16183
1.04422
0.648788
1.27459
5.65158
1.85637
2.44062
2.38939
-0.0933988
0.585912
1.00517
1.65889
0.747572
-0.0037184
1.97825
2.55703
-0.142392
2.47579
1.88889
0.582477
-0.00526797
-0.380939
0.669529
-0.152581
0.640892
0.620363
-0.118742
0.75824
0.235183
0.174699
0.0429864
0.539696
0.885755
0.0387132
0.880369
0.680169
0.214831
0.801471
-0.352585
0.817199
1.25333
-0.0054245
-0.413833
1.465
0.530599
0.535216
0.647303
5.99399
0.588682
0.271188
0.830376
1.64918
0.841602
3.07339
4.30009
-0.667809
1.53934
4.17634
5.86298
1.27064
-0.275843
0.831433
0.966952
0.46441
0.0140462
-0.0959876
-0.159166
0.709192
0.236793
0.869122
1.80885
0.184136
-0.0491241
4.01075
2.86286
4.58379
0.136088
0.782088
0.439883
0.278322
2.33396
6.37555
2.18777
0.6183
1.97921
0.630279
1.26721
0.705243
0.500281
0.552331
0.274832
0.44634
0.193944
0.705165
1.47004
-0.15851
0.575679
1.59008
-0.237977
0.361553
0.191857
2.27536
1.1326
-0.1546
0.277021
-0.0209627
0.290178
0.802758
0.0445103
0.843999
2.42649
0.676738
0.412891
0.341458
1.92747
0.602634
0.626058
0.762559
0.980924
1.83327
2.8958
0.108529
2.88953
0.854513
2.607
0.550923
0.811926
4.45554
3.67375
6.49495
0.993148
3.88552
1.82414
-0.214596
0.208634
0.413861
1.16386
1.86536
0.503796
0.863813
1.75885
0.485629
1.40241
0.771564
2.16843
1.06088
0.188829
1.40954
-0.0258429
-0.320965
0.270602
0.629909
0.499826
1.24192
0.772562
2.40108
1.74251
0.607705
7.26825
1.15757
-0.0463738
3.73582
3.95621
1.68665
0.501341
0.579087
1.94253
-0.311986
2.29236
0.28967
0.303906
0.863241
0.4722
0.717959
-0.22187
1.56778
-0.321833
0.482752
0.866732
0.654654
0.596107
1.62035
0.62368
-0.403752
0.12201
0.562454
-0.739792
-0.159632
3.60163
1.29538
0.391932
1.16843
0.026435
0.0731465
-0.380615
-0.48614
-0.188239
-0.302314
0.501682
0.0643041
1.83497
-0.341209
0.613085
1.68822
-0.149574
-0.202169
1.14754
1.0201
0.799924
0.145244
-0.0315784
2.19667
0.227045
1.62239
0.285975
1.17529
-0.200018
1.42277
1.98527
2.79237
1.33279
0.204812
0.0320329
0.762982
1.2528
0.529975
3.38806
0.576937
-0.582867
1.68596
-0.920776
2.71735
2.59732
0.366296
0.808246
0.192752
0.817624
0.910526
0.459215
0.28815
-0.13357
0.254195
0.465425
0.827543
7.33025
5.47821
3.23111
1.37362
0.128904
1.10463
0.437168
1.18612
0.0571668
0.985121
1.64123
2.58403
-0.515178
0.681369
-0.0931002
0.0559611
1.17368
1.26599
0.193714
0.292236
2.04866
0.802002
1.76893
1.78779
1.90236
0.0766792
0.0871295
0.12853
2.15936
0.497908
0.653003
0.330506
-0.284525
2.91525
1.52118
0.959194
-0.108594
-0.300802
0.0653809
0.103836
-0.320003
0.724342
0.729021
0.477397
0.551566
0.475521
0.11407
0.80447
1.01921
-0.117405
2.61828
0.655774
4.45713
-0.02808
0.745573
0.837476
4.21673
2.11639
2.25803
2.42325
-0.215228
-0.339792
-0.141219
0.209288
0.846282
4.39567
1.5227
0.965078
0.381728
-0.26613
0.408302
1.3266
-0.0128454
0.369919
1.61832
1.28682
-0.0664911
0.399628
0.947584
-0.0788741
0.634529
0.518573
-0.430626
1.16093
0.52174
2.17381
1.4537
0.253989
-0.136518
1.94091
-0.146946
2.10659
-0.0982885
0.239081
0.710903
0.0137292
0.990459
5.69024
2.09309
1.99037
0.833895
0.997013
0.259607
1.57367
-0.0930736
1.51227
0.547804
0.847073
1.50005
4.64022
0.836454
-0.129745
1.79795
4.03098
4.56789
4.18462
4.76602
-0.341324
0.402288
2.23932
0.450445
2.3961
0.951299
1.44131
-0.0316312
2.06127
-0.0946585
2.08017
-0.121427
0.815885
-0.0439721
0.473444
0.919447
1.17107
0.118282
0.250187
-0.0346277
0.425179
0.470362
0.738921
1.11562
1.28074
1.64919
1.2341
1.14958
0.66456
0.705088
0.928031
1.69496
0.112549
0.483121
-0.300497
0.218547
0.365667
0.149606
-0.0484384
0.0991809
1.49317
2.28918
0.94769
6.08651
1.22483
1.98923
0.759513
1.22732
1.2954
3.2634
1.74633
1.51734
1.03073
0.0271334
-0.17395
0.439776
-0.415673
-0.115073
-0.333929
0.272349
-0.069365
0.112501
7.12497
8.19294
6.7951
-0.335873
1.62171
-0.0130039
4.5393
1.6408
0.311482
3.10013
2.53416
1.49146
0.495969
0.721117
0.972931
1.55294
0.977448
0.209335
-0.357084
-0.3451
-0.0645932
-0.114513
0.0695061
0.265591
-0.366454
-0.460102
-0.128376
0.0307125
0.514949
0.222434
6.48764
8.14975
0.0863861
1.64736
6.46279
8.60267
3.72718
5.36497
1.17816
0.305228
3.37318
1.8665
-0.171507
1.74499
1.04207
1.98069
-0.0651192
4.67959
-0.468154
-0.511039
0.961749
0.487146
1.37991
1.59387
-0.171767
1.19955
3.05709
3.17618
4.11781
1.28501
1.10869
0.233435
0.790468
-0.129315
2.04175
0.407014
3.76138
10.7961
1.50751
1.02766
1.71033
-0.461366
-0.2324
0.42568
0.225078
0.597903
0.421109
5.72875
0.208011
1.10148
0.593601
3.014
-0.514199
1.26311
-0.106615
-0.181589
0.263799
0.165813
0.186944
1.47341
0.0725478
0.018
0.307479
1.21166
0.20792
-0.139246
-0.666849
0.177363
-0.0232769
-0.06031
-0.0189827
0.147817
-0.709392
1.88788
1.19616
2.24954
2.6849
3.62627
2.33946
9.30268
5.84647
5.01269
2.36746
5.41917
9.71422
3.97566
2.04938
2.19911
5.68202
4.58109
5.65243
1.50353
1.12571
1.58742
0.500478
0.245166
-0.0294502
-0.00721256
-0.0778044
-0.196478
-0.180023
-0.180183
0.738402
0.78826
-0.0966388
3.09503
1.54162
-0.0425607
0.639298
3.53549
4.38543
1.24164
0.0257905
2.51897
0.451667
0.351584
0.845106
-0.0811992
-0.0379699
0.230279
0.913137
3.85835
1.08541
1.16046
0.0297474
0.168327
1.66867
0.427223
0.214867
1.30156
1.10802
-0.0875369
2.75703
2.79132
2.00898
2.81012
-0.0564078
0.120914
0.0998133
0.382802
0.150224
0.0791734
0.246749
0.305638
0.208145
0.338234
0.637332
0.876738
0.592648
0.742228
0.550594
0.545771
0.231192
0.550818
0.359067
0.377783
0.300736
0.0294777
-0.0088235
0.0413712
0.0599924
0.351888
0.311486
0.666284
0.478896
0.326152
0.387085
0.394944
0.088074
0.402306
-0.0541132
0.806996
0.401771
0.351358
0.520968
0.368449
0.105746
0.0219834
0.0348593
0.0997518
0.312595
0.529254
0.649526
1.26271
0.597093
0.53253
0.566342
0.536748
0.502314
0.50235
1.22425
0.344429
0.14816
0.193439
0.913307
0.700198
0.593171
0.408323
0.726125
0.745486
0.25967
0.3684
0.425747
0.287316
0.300208
0.259325
1.36435
0.683627
1.15837
1.08284
0.964645
0.550043
0.800958
1.62098
0.984711
0.171104
0.532083
0.241112
0.868504
0.337922
0.765804
0.679294
0.491065
0.587035
0.551485
0.459594
0.297162
0.211806
0.216714
0.324111
-0.0926673
0.206499
-0.0216293
0.250665
0.220065
0.243604
-0.148282
0.386878
-0.124722
1.24171
0.223808
0.215561
0.275297
0.312629
0.184125
0.229777
0.326022
0.716635
1.10661
0.95319
0.574945
0.435765
-0.0714557
-0.132272
0.0726878
1.10473
-0.106842
-0.214781
-0.0333629
1.36066
0.572481
0.995302
-0.269007
0.0908011
-0.29727
0.630926
0.450168
0.57044
0.520545
0.939559
0.121849
0.581481
2.29659
4.84941
2.91817
1.54128
3.24266
4.47965
1.92304
2.54949
0.871914
0.954949
0.474847
0.925082
1.59811
3.68109
2.08656
1.74407
0.357569
1.02118
0.698791
0.624939
0.675
0.46306
1.69492
1.00651
1.97248
0.530624
0.697091
0.841456
3.15476
2.54401
1.0741
2.0318
4.30372
1.4049
3.25953
2.14687
2.36094
0.361092
0.220556
-0.268601
1.25427
2.17286
0.793687
0.375471
0.66063
1.18153
2.10068
2.87841
1.72571
0.443116
2.67954
1.10037
0.437621
0.367007
2.11365
1.03358
1.34108
6.74683
2.47409
3.26318
0.350456
0.631155
0.602772
2.52175
0.932861
2.12988
1.13861
0.915017
1.66903
0.979576
1.13401
0.482896
-0.273258
-0.12947
0.606128
0.298614
1.88051
0.0297804
0.899959
0.000779699
0.367877
0.387123
0.209107
0.450741
0.257563
0.261155
1.58307
0.145287
1.52964
0.95839
2.21514
1.36603
1.80203
1.44386
2.841
2.4578
0.489543
-0.12391
0.286835
-0.303282
-0.37525
-0.052568
-0.0236698
-0.286095
0.466983
0.626337
-0.0021594
2.38693
1.13715
-0.349009
0.210967
-0.0572809
0.773115
0.324112
1.07204
0.429437
0.678816
0.625794
0.437284
0.852335
0.58978
1.20463
0.408749
0.633441
0.397398
-0.0318009
0.1447
0.935149
1.05158
0.229965
0.137502
0.406583
0.600893
0.354302
0.258426
0.502587
0.53678
0.237987
1.25328
1.76239
1.69897
-0.351761
0.114944
-0.145023
0.232549
0.428017
0.337439
0.075461
0.450226
0.446324
0.662003
0.0817827
0.747283
0.171502
0.0668648
0.165532
0.453573
0.289563
0.918745
1.03881
1.27546
1.44154
0.269757
0.842252
1.1277
0.771154
6.59568
1.42712
1.84299
0.803249
0.654728
2.36863
0.922328
0.662812
0.326828
0.0924146
1.59453
-0.0461833
0.104177
2.12343
4.25143
1.13053
0.625548
1.07336
0.623686
0.267563
0.0417878
0.205916
0.433787
-0.021003
-0.494664
-0.307949
5.50591
2.69767
0.141268
1.71071
-0.262708
3.48008
1.14468
0.632396
-0.271247
6.06135
5.78703
1.25429
4.83597
1.21374
6.43081
0.535859
0.794216
-0.0467418
-0.512587
0.904483
0.423212
0.434517
0.602892
0.603242
0.423693
0.17632
0.447565
0.146134
-0.149278
1.50791
1.37421
1.18315
2.06348
1.58243
1.62693
1.46322
0.726018
3.91198
2.08646
6.2364
-1.53303
-0.923613
-1.16821
1.53769
-0.708897
0.606968
0.485762
1.26974
1.10934
1.66136
4.12871
0.769401
1.06493
7.05896
6.91345
2.14293
2.70357
4.86584
7.56823
-0.533625
0.305113
-0.46956
-0.922167
1.68243
4.8266
6.96796
1.61243
0.168725
-0.043759
0.427737
0.882179
-0.239719
0.203937
-0.194376
2.73257
0.0554864
0.370144
1.63697
0.0806286
-0.348619
-0.277887
1.46626
-0.496384
0.248896
0.291762
-0.559294
-0.23848
0.203697
-0.288109
-0.401979
-0.350599
0.562702
0.699268
0.290639
0.0255786
0.441042
0.0708157
0.75088
-0.132034
-0.527317
0.608199
0.230758
3.23807
1.68622
1.69095
8.77458
0.0547462
0.615225
2.28604
8.92983
7.32095
2.08758
5.11839
1.40918
1.74401
2.26482
0.389245
0.989885
0.331452
0.185958
1.44254
-0.388531
-0.217417
2.95044
11.6197
1.72337
5.55459
0.573851
0.927629
0.154701
0.0556172
0.576592
0.280957
0.763302
4.46343
-0.0867085
-0.780734
0.993571
1.36623
3.1719
2.86991
8.96176
0.675798
1.96663
4.22595
2.01999
0.508366
1.55446
2.78212
1.89369
6.28507
1.44197
-0.0280704
-0.423925
-0.530415
4.39996
5.47196
2.26018
3.43589
1.25488
0.448223
-0.413602
1.94741
1.70343
0.408799
4.4224
0.151078
0.557429
0.565552
2.09774
0.669992
2.22916
0.918972
1.45789
0.553305
-0.149935
0.0511478
0.030517
0.30463
0.350456
0.351462
0.131621
-0.132929
0.793314
-0.0114998
0.395705
0.474747
0.144154
-0.168667
-0.062775
0.344401
0.271416
0.0472325
0.478408
1.6551
2.3378
3.00803
1.13374
1.66734
1.32781
-0.195716
0.25064
0.344064
-0.249615
-0.11172
-0.2113
5.29999
0.890198
2.47209
-0.0482078
0.0884974
0.395542
-0.310788
0.122158
-0.34733
-0.271017
1.1293
0.167734
0.751929
0.888055
0.838222
0.885746
2.14095
0.910216
1.61147
0.390848
1.16658
3.33705
1.38251
-0.275673
0.482902
0.248694
-0.108355
-0.146867
0.312767
-0.0565583
0.668004
-0.12885
-0.0018737
-0.179177
0.590466
-0.0459029
0.198067
0.149725
-0.0124113
0.295103
0.658572
0.628423
1.2108
0.157376
1.33772
0.586998
0.381482
0.274905
-0.0219254
0.220027
1.37029
0.468423
1.15967
0.443034
0.329494
0.349603
0.130604
0.0638647
1.5345
1.23526
0.654313
0.514529
0.419661
0.385271
0.531114
0.321394
0.361727
0.429709
1.01579
2.30499
0.658883
0.494534
0.833013
0.483191
0.561508
0.805443
0.69521
1.1042
0.406638
0.555902
0.371438
1.09655
0.533044
0.39734
0.300434
0.555879
0.382507
0.832344
0.881507
0.682332
3.27178
2.60236
1.39653
2.7919
0.525693
0.163328
0.110798
0.836986
0.881954
0.898652
1.93747
1.11258
3.61723
6.69617
0.0771282
5.33946
9.91912
3.47884
4.1298
-1.16253
1.39602
-1.28546
3.48921
0.453726
1.62121
0.821276
5.33554
2.87528
0.98473
3.72318
4.59524
1.21933
5.93666
7.5804
2.34628
-0.503499
2.01029
-0.154704
5.60951
7.81367
7.08261
0.197561
0.724826
0.273082
-0.63348
0.390905
-0.37636
1.49522
2.03783
0.313077
2.25671
-0.46273
-0.286739
5.17465
4.13194
3.31877
4.37081
3.29443
0.167301
2.32436
0.26411
0.257949
1.20524
3.75179
3.22302
3.55874
3.34805
0.971455
3.10831
3.27385
0.549418
0.304873
0.49299
0.10212
0.142944
0.724098
0.606362
0.486323
1.18186
1.67486
0.513675
1.10237
1.11559
1.10821
0.546332
7.58408
0.91266
7.11537
0.629616
0.56947
1.20998
2.03895
0.635339
0.704066
0.0881844
0.25463
0.684849
0.116315
1.00332
0.278646
0.35744
0.359401
0.40106
0.197356
1.33432
0.23038
-0.0939318
0.987553
0.697365
1.25265
-0.101176
-0.156553
-0.210477
0.626941
0.665826
0.000383201
0.345191
0.800746
0.785418
0.940455
-0.32333
0.119901
-0.13488
0.413461
0.598691
0.551629
0.719592
0.928004
0.682726
1.02625
1.00926
1.439
5.315
1.53563
0.644484
4.92505
1.69326
1.80036
0.856998
0.962727
0.698196
1.89462
3.15275
2.15206
3.32808
2.66111
9.46447
0.216683
0.757308
0.76974
1.16074
1.50305
1.74939
1.20291
0.97454
1.18003
2.12468
1.23403
0.539036
2.22997
0.142081
0.59618
0.439714
8.19796
3.05284
1.18275
-0.0974072
1.04143
6.26253
3.98256
4.27755
1.28394
1.07217
1.53843
0.139114
1.73079
2.72828
2.8278
1.54621
3.02049
0.074821
0.0191865
-0.314925
-0.355002
0.344084
0.901834
0.834372
0.687584
0.754678
0.755928
3.88232
1.35684
2.55001
1.50121
2.11647
0.57273
3.04044
-0.0749178
-0.405885
0.455277
0.760512
0.567367
0.791949
0.60946
0.128228
1.63958
2.05273
0.571149
1.51756
-0.221705
-0.00584524
0.597315
1.91405
2.23656
1.0243
2.06524
-0.628809
0.631156
-0.402189
1.55343
2.11925
1.19682
0.350446
0.810343
0.508371
-0.0584481
0.719981
1.5718
-0.18024
0.45781
0.0200555
1.38196
-0.404684
-0.621463
0.116169
-0.3993
-0.139356
1.48668
-0.289135
0.456371
-0.23856
-0.743109
0.61981
1.71713
1.72447
0.613212
-0.371789
0.764971
2.3551
-0.541697
0.742871
-0.200667
0.699431
0.261644
0.000573748
2.78466
0.523691
-0.423308
1.29153
0.695058
-0.40182
0.367649
-0.00668918
0.340476
-0.258668
0.637264
1.91309
0.401966
0.940414
1.08286
0.37075
2.05319
2.38853
0.906377
1.50148
0.0343752
-0.256246
-0.113528
0.244703
0.173074
0.723261
0.489215
0.167244
1.17001
-0.574058
0.435268
0.264725
-0.00802286
-0.212135
0.949394
0.544104
2.10376
0.663571
6.50365
0.730525
1.31031
1.27063
2.29841
1.15677
0.084798
1.25648
0.299714
-0.474164
-0.596813
-0.493587
0.0957254
2.08104
1.67838
1.86487
0.0239751
4.96106
0.548353
1.84204
1.86481
0.17734
1.95563
0.538871
0.945218
0.264273
-0.0851828
-0.414926
1.21915
1.59395
-0.0616934
0.755308
0.56176
0.143354
3.9821
-0.17471
2.08515
0.34582
0.816976
0.922043
0.19615
-0.759206
0.233027
-0.528866
0.638308
1.24307
1.70693
1.1504
0.814849
5.36601
-0.476109
1.46134
-0.112945
2.49122
5.84844
2.19115
1.83511
0.372515
1.22644
2.03923
4.51041
1.16464
0.699807
1.93473
0.157454
-0.721346
-0.143231
0.870439
-0.105712
-0.134984
-0.224046
1.17694
0.246301
0.0989406
0.384166
0.659319
-0.0715222
-0.077522
5.52916
1.79922
2.45585
2.13041
0.320775
0.959217
0.0357963
0.10426
-0.267831
1.4431
3.81516
-0.161523
-0.488958
-0.8514
-0.68705
6.18111
0.218963
0.888385
0.206154
0.839603
-0.148103
2.27903
1.74863
2.26153
4.5031
-0.701952
4.39822
-0.0346713
2.73762
9.47506
0.51792
5.26822
2.48748
3.22053
0.35689
0.926394
-0.143389
0.530006
1.36998
-0.321192
-0.672022
3.15997
-0.0011348
1.16002
2.34781
-0.338727
3.97586
4.27087
-0.773301
-0.730517
0.369414
6.59498
1.54772
2.6369
1.63446
2.14455
3.89673
-0.913908
1.11244
0.0121591
0.646809
0.768332
0.577541
-0.108361
0.56951
0.721731
0.788683
0.481017
0.385173
0.968411
0.085568
0.377364
-0.196678
-0.147437
0.852588
-0.199086
0.575072
-0.199071
0.0657158
0.138946
-0.0389857
-0.189781
0.0311471
-0.139599
0.503131
0.240306
-0.0611178
-0.149308
0.440611
-0.119618
1.0428
0.916308
0.939296
0.871703
1.01114
1.40197
2.34799
3.65436
10.3885
4.11919
1.87707
1.34281
6.29223
3.36967
2.55804
0.861771
4.65573
0.833775
1.42714
1.25131
0.518125
2.15183
0.909984
1.73081
0.260928
0.502853
0.639277
0.628569
1.85977
0.0814538
1.36506
0.881623
0.318536
0.38507
0.134847
0.0937681
0.0614218
0.42223
-0.106243
0.572648
0.622278
0.0200769
3.80782
0.795257
0.51986
0.730296
1.49966
1.08753
0.863295
0.908461
0.0394105
5.15657
1.28798
6.40289
0.332193
0.772131
1.04663
-0.698603
-0.00662497
1.98317
0.132329
0.327932
-0.156829
-0.1225
1.00522
0.234276
0.475395
0.705111
-0.244664
0.390224
0.428533
0.38772
0.241665
1.99564
0.859873
1.88926
0.624571
0.559694
1.18916
0.035813
0.67633
0.0646931
0.126983
0.800503
0.132418
0.915102
1.93906
5.95988
1.82416
2.05537
2.6266
1.36764
2.69757
0.694873
1.6099
5.93605
0.520204
3.01473
1.08044
1.9215
0.240621
0.802855
-0.0748904
0.338309
0.344586
1.29868
0.569911
0.370894
0.879779
0.650301
-0.0306384
0.148986
0.021209
0.117997
0.103752
0.439519
0.274411
0.181781
1.03744
3.08694
2.20288
1.92285
1.57729
0.118911
1.06154
0.280793
0.514571
0.336705
0.973836
1.04036
-0.146173
0.803066
0.787435
0.240656
-0.0177073
0.151266
0.423533
0.825052
0.62143
0.657533
0.715878
1.12133
0.738476
1.85327
1.61725
2.7006
3.94685
0.354653
0.0314676
0.430465
-0.181018
-0.265821
0.333541
-0.0659946
-0.316817
0.118553
0.0444608
0.196049
1.44988
0.356902
0.00423974
0.0643666
-0.0429085
0.324976
0.0349263
0.670374
0.88161
0.72427
-0.33695
0.575435
1.125
1.00986
-0.144345
0.0264506
0.551835
0.614817
0.853826
0.834501
0.570325
0.165968
0.364151
0.857312
0.132319
-0.0338534
0.465173
-0.0366068
0.480005
0.704838
0.55384
-0.150352
0.543919
-0.225449
0.152564
0.564683
0.126825
0.315738
-0.124112
0.110558
0.0890065
0.139195
1.30939
1.76934
0.287623
-0.190768
-0.240789
0.0715302
0.0836107
1.04927
0.0511633
0.466685
0.921485
4.8608
3.51788
4.26364
4.83383
-1.01054
3.2766
0.743776
6.25048
1.85001
7.39976
1.22865
0.0512055
0.671912
3.42171
-0.314593
0.790587
0.123409
0.285206
1.39839
1.32337
0.254041
0.436431
0.307662
0.582019
0.77608
1.7814
8.1137
5.80636
4.97571
3.54001
5.78853
-0.425362
-0.198819
1.225
3.1068
1.16402
-0.953369
1.28106
0.0410027
8.05762
0.862166
1.42234
1.51132
0.177303
-0.234997
0.238549
0.808855
0.468858
0.457801
-0.0408064
-0.453222
-0.329373
0.264172
-0.562414
0.224438
-0.577541
1.87182
0.0288016
-0.402069
-0.159727
1.50884
0.318771
0.658166
0.483179
-0.398353
9.61121
3.4869
8.70445
4.72969
1.23345
0.798714
-0.029765
-0.561501
-1.17562
1.15444
1.25835
1.20812
1.54437
-0.128452
-0.0117215
0.425979
-0.529195
2.51628
0.783869
1.18636
0.935237
0.348498
-0.36058
0.059346
0.358236
0.277422
0.658432
1.22668
0.513313
1.74512
0.0201696
0.975234
2.05539
0.51476
0.329583
0.407195
0.772801
0.71316
1.88774
2.44505
-0.521724
0.871457
-0.33664
-0.334051
0.486249
0.182597
-0.0438765
1.97176
1.01777
2.33811
0.198183
0.453439
-0.0827898
0.0666538
-0.320166
3.05259
0.432829
0.616286