# vtk DataFile Version 4.2
vtk output
ASCII
DATASET POLYDATA
POINTS 2562 double
-0.195438 0.397755 -0.0917293
0.162688 0.378884 -0.109474
-0.273214 -0.334996 0.0332608
0.24577 -0.335399 0.0267855
-0.0102874 -0.370731 0.401445
-0.013282 0.134656 0.281664
0.00203689 -0.0661508 -0.261258
-0.00818355 0.338141 -0.516863
0.375542 0.0922204 -0.303203
0.280925 -0.0363623 0.176298
-0.402756 0.104909 -0.308682
-0.326403 -0.0357927 0.182972
-0.270374 0.197188 0.0077721
-0.183705 0.0722376 0.276774
-0.116072 0.331228 0.0816811
0.0887165 0.328803 0.0796855
-0.00641783 0.448302 -0.0955668
0.127875 0.38874 -0.346584
-0.143447 0.397189 -0.350149
-0.248027 0.249824 -0.386284
-0.454227 0.30152 -0.334136
-0.382885 0.0019586 -0.125192
0.16552 0.071587 0.271643
0.246852 0.187686 0.00522335
-0.182413 -0.228546 0.324703
-0.0135749 -0.0323419 0.381746
-0.339298 -0.19468 -0.166517
-0.32901 -0.253502 0.110396
-0.00787865 0.191943 -0.43304
-0.281863 -0.0487129 -0.331771
0.408395 0.293474 -0.33559
0.244638 0.236642 -0.363992
0.290758 -0.246355 0.0993204
0.154646 -0.220121 0.314824
0.116125 -0.454432 0.306238
-0.13798 -0.459253 0.311325
-0.0026556 -0.347375 0.126482
-0.225637 -0.217729 -0.163213
0.214367 -0.219169 -0.165136
0.254511 -0.0514438 -0.333201
0.309424 -0.187997 -0.174609
0.361112 0.00211645 -0.135521
-0.221143 0.330805 -0.0639934
-0.18352 0.303901 0.0482412
-0.192472 0.437066 0.00736775
-0.276041 0.0254219 0.251541
-0.249199 0.134795 0.173758
-0.310987 0.0667874 0.120793
-0.0639788 0.27324 0.193529
-0.141408 0.227672 0.190942
-0.076931 0.114877 0.311371
-0.094888 0.423972 -0.00791225
-0.135576 0.445495 -0.0938887
0.0420664 0.272845 0.19326
-0.00970417 0.332656 0.101095
0.105914 0.443548 -0.0923451
0.0786351 0.423319 -0.00720516
0.146437 0.422788 -0.00124591
-0.0857942 0.445973 -0.230029
-0.192457 0.395516 -0.226236
0.165971 0.379009 -0.233092
0.0688506 0.445031 -0.22817
-0.0845461 0.382977 -0.464518
-0.0087809 0.423888 -0.366866
0.0649871 0.38188 -0.461671
-0.373726 0.292606 -0.321879
-0.336538 0.297232 -0.264551
-0.126829 0.312193 -0.511576
-0.214863 0.32191 -0.413363
-0.452799 0.24669 -0.336396
-0.440387 0.294225 -0.358318
-0.399475 0.205227 -0.360096
-0.343981 0.23995 -0.22301
-0.402414 0.0643996 -0.245705
-0.407297 0.198388 -0.273245
-0.335902 0.109889 -0.0597585
-0.355501 -0.0336194 0.0573014
0.152529 0.287307 0.0521005
0.202441 0.308144 -0.0773904
0.0528849 0.113264 0.298028
0.119001 0.222678 0.188663
0.271985 0.0659638 0.115571
0.221031 0.123636 0.167086
0.246427 0.0199851 0.242566
-0.0744481 0.0316052 0.379085
-0.0139145 0.0660168 0.383693
-0.277365 -0.108756 0.257764
-0.206592 -0.0427895 0.320643
-0.0112038 -0.220176 0.398355
-0.0930429 -0.140385 0.392802
-0.0999374 -0.32699 0.390263
-0.378101 -0.138096 0.0200625
-0.338781 -0.148055 0.1517
-0.399893 -0.0586989 -0.252237
-0.379153 -0.0890165 -0.141968
-0.305112 -0.323009 0.0623061
-0.373506 -0.247694 -0.0268472
-0.324903 -0.2852 -0.0696849
-0.27178 0.0989948 -0.383702
-0.343479 0.0113275 -0.321789
-0.00873909 0.290237 -0.513534
-0.119845 0.246464 -0.457969
-0.185266 -0.0610278 -0.296182
-0.170387 0.0681092 -0.367807
-0.00129331 0.0340535 -0.33051
0.200314 0.306688 -0.387593
0.11057 0.308905 -0.511693
0.313328 0.289902 -0.273116
0.35819 0.301631 -0.326096
0.368901 0.202577 -0.356874
0.408088 0.29105 -0.358442
0.404877 0.241546 -0.334807
0.274635 -0.318729 0.059773
0.204077 -0.350968 0.207933
0.173843 -0.386332 0.179862
0.250915 -0.103427 0.255933
0.231621 -0.247859 0.235793
0.301993 -0.142567 0.13813
0.0422087 -0.427657 0.376476
0.129529 -0.364134 0.337171
0.0760163 -0.325605 0.386123
0.0708828 -0.420995 0.247258
0.153477 -0.344416 0.087241
-0.0656745 -0.43663 0.386993
-0.0107006 -0.469698 0.349968
-0.170309 -0.346512 0.094664
-0.0892096 -0.420903 0.251874
-0.200854 -0.391755 0.189268
0.114191 -0.280059 -0.0350197
0.240099 -0.283566 -0.0757795
-0.261809 -0.282539 -0.070734
-0.120722 -0.277693 -0.0317442
0.12941 -0.14128 -0.21843
0.000319302 -0.199436 -0.133487
-0.132586 -0.140082 -0.216294
0.288503 -0.252357 -0.200777
0.297845 -0.280368 -0.0801047
0.174491 -0.0657942 -0.299315
0.255444 -0.162234 -0.266423
0.375409 -0.0569482 -0.249531
0.299046 -0.141847 -0.27168
0.332561 0.0144747 -0.314055
0.327108 -0.240017 -0.0331358
0.374727 0.053571 -0.244656
0.363388 -0.0774407 -0.163105
0.3297 -0.131421 0.0129212
0.310741 -0.0341619 0.0463156
0.0708656 -0.140373 0.389132
0.18815 -0.0437049 0.319573
0.0480426 0.024597 0.35542
-0.240885 -0.366909 0.22101
-0.164607 -0.373833 0.348102
-0.265764 -0.260512 0.249848
-0.277757 -0.159715 -0.262654
-0.311032 -0.250807 -0.199081
-0.328105 -0.146802 -0.288045
0.251288 0.101192 -0.378428
0.158097 0.0625564 -0.366126
0.100425 0.241813 -0.44701
0.294281 0.0988487 -0.0717012
0.369435 0.182568 -0.272413
0.312798 0.233037 -0.224646
-0.207161 0.372878 -0.0754523
-0.200577 0.397903 -0.0176787
-0.197503 0.428946 -0.0351991
-0.222901 0.252082 0.032422
-0.201594 0.340163 -0.00721059
-0.24594 0.270694 -0.0406184
-0.158972 0.398217 0.0176785
-0.187694 0.386843 0.0133288
-0.150064 0.326468 0.0626885
-0.302152 -0.0073687 0.213148
-0.2971 0.047897 0.191195
-0.322866 0.0114168 0.159788
-0.226792 0.105609 0.234416
-0.267083 0.0801454 0.219101
-0.239975 0.050635 0.270138
-0.291087 0.125481 0.0683556
-0.280349 0.103534 0.152312
-0.256409 0.164567 0.0975657
-0.0330111 0.199225 0.216309
-0.0707016 0.18072 0.224272
-0.0431775 0.122631 0.302451
-0.128728 0.299553 0.152578
-0.103242 0.257236 0.193111
-0.0937048 0.313529 0.159636
-0.120139 0.0948305 0.296069
-0.110226 0.158862 0.231005
-0.162539 0.129787 0.234361
-0.208625 0.215656 0.110419
-0.186658 0.171531 0.173505
-0.161778 0.265018 0.129612
-0.1698 0.441376 -0.0305233
-0.169966 0.425531 -0.0807834
-0.118986 0.394191 0.0222202
-0.152884 0.440437 0.00539152
-0.0833311 0.446593 -0.0956878
-0.122204 0.441061 -0.0397647
-0.0499804 0.444205 -0.0449258
0.010206 0.201004 0.214793
-0.00941523 0.27136 0.18914
0.0474079 0.331504 0.0952062
0.0210312 0.313367 0.160223
0.0681379 0.311326 0.15782
-0.0415385 0.313708 0.160269
-0.0707359 0.333835 0.0983885
0.134874 0.419585 -0.0890238
0.135939 0.44051 -0.0318398
0.149675 0.411331 -0.0433486
0.0337629 0.443376 -0.0463259
0.0989921 0.44036 -0.0387791
0.0646931 0.447349 -0.09919
0.123937 0.394382 0.0164164
0.124663 0.439842 0.00553696
0.0941511 0.395388 0.0197167
-0.0460222 0.390488 0.0352542
0.0276766 0.389051 0.0326152
-0.00844071 0.430248 -0.00549351
-0.151714 0.435437 -0.149615
-0.195904 0.394379 -0.160141
-0.0500428 0.448738 -0.156406
-0.11483 0.44641 -0.150056
-0.174323 0.397755 -0.285959
-0.139971 0.441539 -0.226269
-0.114736 0.441692 -0.295961
0.166836 0.37707 -0.173523
0.12539 0.429444 -0.160076
0.0944955 0.431584 -0.288846
0.118144 0.437063 -0.227415
0.154243 0.385526 -0.284589
0.0895405 0.448759 -0.152206
0.0361974 0.449244 -0.155041
-0.0441677 0.364832 -0.505128
-0.00825745 0.382108 -0.46717
0.025865 0.359524 -0.498749
-0.0808574 0.4219 -0.362798
-0.0476237 0.404079 -0.420607
-0.11654 0.39362 -0.418243
0.0989306 0.390163 -0.411925
0.029818 0.400198 -0.419848
0.0619325 0.420008 -0.360891
-0.00712891 0.448323 -0.233597
0.0317344 0.443723 -0.302076
-0.0485476 0.44411 -0.303215
-0.266826 0.326527 -0.239714
-0.238384 0.341514 -0.172538
-0.232832 0.338958 -0.324221
-0.264503 0.32268 -0.282691
-0.421341 0.298248 -0.320133
-0.376268 0.291655 -0.310776
-0.437301 0.313133 -0.335178
-0.0640687 0.328193 -0.515615
-0.106588 0.347971 -0.496901
-0.232844 0.289791 -0.402879
-0.168198 0.320703 -0.474045
-0.174737 0.295994 -0.465989
-0.144967 0.365408 -0.453082
-0.18696 0.36662 -0.399471
-0.428556 0.191043 -0.324785
-0.446803 0.231166 -0.357147
-0.404073 0.165757 -0.334062
-0.473984 0.309538 -0.352968
-0.454412 0.287791 -0.349914
-0.45472 0.288885 -0.339984
-0.362508 0.223419 -0.352777
-0.424589 0.257536 -0.36038
-0.38043 0.256616 -0.352736
-0.315567 0.285099 -0.330623
-0.359264 0.27149 -0.341839
-0.430108 0.313311 -0.351946
-0.264679 0.304352 -0.164648
-0.4119 0.275578 -0.310269
-0.352335 0.274323 -0.258061
-0.281457 0.267689 -0.139454
-0.296453 0.220242 -0.0929111
-0.404207 0.0915421 -0.282978
-0.425714 0.177356 -0.301135
-0.375175 0.0918035 -0.203012
-0.402417 0.143327 -0.264261
-0.401518 0.0303704 -0.187998
-0.438698 0.23445 -0.317752
-0.44034 0.266903 -0.31914
-0.333229 0.0218643 0.0906733
-0.335256 -0.0356997 0.128457
-0.314607 0.151561 -0.0252016
-0.325843 0.0857723 0.0380037
-0.3618 -0.0230607 -0.0244938
-0.342346 0.0336571 0.00472553
-0.352428 0.0528439 -0.098371
-0.390313 0.225922 -0.263672
-0.354699 0.146895 -0.191658
-0.329835 0.182998 -0.15097
0.154332 0.375582 -0.028679
0.179815 0.350357 -0.0949385
0.119235 0.319591 0.066965
0.144418 0.370725 0.0101998
0.223942 0.250568 -0.0484714
0.167759 0.310693 -0.0130217
0.199892 0.234994 0.0320893
0.0160946 0.123494 0.296766
0.0474609 0.183369 0.219743
0.142201 0.127233 0.230299
0.0891239 0.158624 0.223879
0.104029 0.0917982 0.280956
0.0812648 0.254879 0.192957
0.102989 0.289523 0.147082
0.279831 0.0122708 0.152524
0.261092 0.0460374 0.1844
0.267084 -0.00866711 0.21081
0.229203 0.154009 0.0943546
0.252062 0.100989 0.149569
0.26136 0.122441 0.0652121
0.212512 0.0453032 0.258833
0.236752 0.0753809 0.207843
0.19925 0.0982956 0.223151
0.134817 0.255264 0.12837
0.163594 0.163432 0.171083
0.181116 0.201015 0.108465
-0.046204 0.091347 0.360529
-0.0137964 0.105549 0.345185
-0.123781 0.0487163 0.326821
-0.0762921 0.0738623 0.356775
-0.0136769 0.0293233 0.396579
-0.0473974 0.052234 0.394542
-0.0464365 0.00827029 0.396135
-0.310973 -0.070118 0.21948
-0.276947 -0.0359948 0.259338
-0.187267 -0.124816 0.311822
-0.242582 -0.0742791 0.296021
-0.224741 -0.163876 0.281966
-0.246005 -0.00687138 0.291707
-0.200208 0.015239 0.304984
-0.0103567 -0.309658 0.399177
-0.0549655 -0.279263 0.397706
-0.0590928 -0.350834 0.398968
-0.0491425 -0.0966234 0.382459
-0.0513096 -0.179029 0.394359
-0.0106446 -0.133104 0.398157
-0.133329 -0.28715 0.360023
-0.090641 -0.238212 0.377161
-0.131914 -0.187985 0.355159
-0.134412 -0.0109921 0.329794
-0.13492 -0.0957345 0.343033
[...]
POINT_DATA 2562
SCALARS Mean_Curvature double 1
LOOKUP_TABLE default
-1.22694
-2.35743
6.14865
42.1165
10.2387
-4.04249
-1.33538
-6.7739
26.1468
-2.77936
30.5049
20.0481
-1.30511
-3.57011
-6.37412
-4.13719
1.48024
-1.05636
-4.66941
-6.91608
47.8816
3.18216
10.5856
11.8442
4.38348
-5.41474
-7.96645
6.67648
0.830724
-0.203834
2.03406
-5.58439
-7.69316
-0.143497
110.798
102.301
-3.71821
-0.323861
-0.921731
-1.43762
-6.61959
15.0055
-4.36606
0.71175
100.484
24.1555
18.2207
0.417713
14.45
30.1589
13.5711
-7.70678
10.5756
15.9421
-6.33289
10.8067
-4.51779
39.6941
0.990225
2.61895
0.905585
0.756606
11.6163
-4.0476
26.4326
18.5722
-0.887367
55.9134
6.44176
13.2259
22.4749
48.9751
-5.27908
7.62896
8.19782
1.12167
7.87558
4.25268
12.3325
7.61871
34.6083
3.17582
-2.68686
19.7866
4.96532
1.64492
16.4269
15.1347
13.0049
36.0828
4.50715
13.257
0.512673
58.0027
-3.38575
12.5153
44.5705
13.7394
24.1181
-9.82678
4.40709
1.45932
0.154024
0.960924
-1.92733
46.4245
110.768
20.6348
74.4633
43.1552
12.9475
7.40258
7.32894
-5.64348
6.65515
21.1649
-4.0959
3.3476
-9.04554
-6.05241
10.4955
-0.720705
-0.154243
27.4673
15.8279
-0.238912
-0.392658
12.5409
0.792374
1.16661
-0.892954
0.459925
-0.336495
-0.679985
0.391042
117.981
29.8616
0.450633
-0.77565
41.0226
10.9338
1.95473
2.85436
21.8351
25.6755
4.99509
-3.24673
40.5743
36.5864
-6.13617
15.0329
-0.76482
13.8002
0.656681
73.8203
30.5722
19.9132
0.628623
1.45721
-3.97131
-14.6136
-0.436929
-0.181726
3.82299
43.6618
-3.68765
0.0630026
0.33124
1.38925
31.0713
-2.65502
3.80108
16.3293
7.9132
16.6016
18.7046
16.8421
-2.46578
1.17935
1.62789
-4.39807
-5.64653
-4.61955
15.7938
15.6806
22.001
-4.06601
-3.00054
-3.12419
-0.216278
-9.02283
-5.16841
9.13066
-12.1853
-3.38548
65.8022
-1.6925
8.17588
3.96559
-3.6396
-5.03146
-4.66252
18.8741
39.1641
20.562
1.18571
-3.59286
48.7561
8.87831
8.1374
7.37465
-6.01725
5.966
76.3819
2.84917
4.96176
0.330821
7.2411
3.8051
1.27187
0.590048
-1.7801
-0.331591
27.1713
25.3398
0.786111
13.0147
5.7199
30.1454
0.763836
3.15857
0.0802718
42.8274
2.17736
21.1283
-1.74385
-1.36142
2.21318
14.5808
-6.18783
9.94857
1.41061
4.44259
4.09884
-8.11278
-3.74807
0.441883
-7.87541
50.639
4.24684
48.1455
6.81141
5.81455
-0.216593
10.6224
-1.89096
6.54915
25.7316
3.73036
103.054
-3.96269
185.831
45.5355
-10.7995
-3.13847
6.03416
22.0189
-5.95035
-0.961469
102.469
-3.00714
-10.6705
5.96398
-0.922677
1.12112
4.49706
101.976
-8.3293
-10.4185
34.5983
2.32793
23.1336
-2.19202
-6.25817
5.61171
10.8522
-1.1297
-2.0796
-5.85152
-0.702888
-5.65388
-1.75535
-1.63035
2.01235
7.30333
31.7643
0.38704
-5.21518
8.01538
-3.39446
-5.77408
-0.738717
-6.48985
-7.31332
22.6833
7.97881
0.717208
0.331322
5.5236
-0.893671
13.8858
0.66041
11.2274
4.69422
2.73448
-3.77357
-6.67067
-2.48738
3.93457
18.4203
5.6998
1.41688
7.53058
39.6225
24.4982
15.5193
12.5654
-8.05986
11.9042
-8.11292
23.2092
9.52246
-0.918384
20.4128
0.079742
-1.68875
-5.28514
13.5205
1.53594
-6.58856
-0.361682
-5.83464
-2.50969
-8.44638
10.2643
0.221607
17.5338
8.66117
-2.98301
-1.11992
-6.11934
15.6482
2.76179
-2.92835
31.9159
-9.41834
2.78067
19.4673
17.5065
19.8638
0.187793
25.1605
6.32817
-2.97055
-0.660973
19.4342
-6.71558
-8.46766
10.0083
-9.02895
12.7687
6.49729
14.0528
-7.63887
18.6605
-3.639
39.5615
116.125
14.0967
1.40034
4.52897
2.33712
-4.2247
1.62363
-1.22277
-0.440805
-1.82009
0.54345
1.19904
0.252789
-0.615853
0.551038
-0.444735
-0.418681
-0.886041
3.02842
-8.43231
19.9677
1.38273
17.878
4.6032
19.3563
-7.72306
-1.41444
0.482809
66.4593
-21.2798
33.1469
0.580014
-8.39323
2.84208
67.7516
84.2255
4.12905
10.25
29.2867
2.48537
174.122
164.066
15.4644
128.145
11.5154
14.6867
31.52
4.10857
2.84661
21.1326
24.2262
13.9224
52.8986
5.02769
8.51687
15.7326
-3.61207
8.13167
-5.16895
-9.43592
13.6352
13.0109
6.62055
10.7416
18.231
-0.0142298
-1.08675
40.3691
-9.97203
5.75876
22.9561
1.09144
13.3074
20.1266
-15.5169
0.398649
-0.928268
-5.86965
9.12325
-0.184187
0.952114
0.589698
-0.997578
43.8168
24.2066
21.1414
17.7955
7.75538
29.8172
-0.514637
-0.32562
1.25356
-0.0293111
0.397708
0.0319398
73.9952
-2.50674
-4.21702
-1.62287
0.102323
-0.10978
0.47624
3.1963
-0.152235
0.715784
0.205463
1.13597
0.461478
1.58294
1.43597
0.704807
0.104479
0.592349
0.542259
-2.05547
0.207831
0.0626472
-0.778664
-0.573856
-0.32578
-1.65009
-0.192625
0.281301
0.156954
-1.94457
0.532305
0.496315
13.1088
33.3657
-2.70836
1.338
11.5275
59.4583
18.5351
-0.143096
0.0925133
8.84889
-0.579461
0.0617729
-1.33202
-2.20046
11.4598
23.333
24.181
-3.065
8.13382
-2.28465
6.36796
-12.5744
1.0138
3.70246
27.275
93.9438
-10.1311
-1.67522
34.8293
64.4595
-1.836
17.3135
6.47967
16.0391
2.0882
48.0928
27.7533
-10.4663
-5.64892
11.4133
-6.46743
17.2827
9.46589
11.6594
2.34728
5.45836
-6.87229
4.39051
32.3299
-0.476277
-9.85183
-18.1896
0.530685
18.3449
0.691437
-9.30402
-11.2431
-4.70665
22.8608
52.0747
63.9617
9.93999
0.896939
-5.72306
-0.967789
-6.86672
24.7861
-0.943646
1.98575
5.15798
-3.55178
5.14784
-1.8006
9.30195
18.827
-7.29679
30.9709
16.6283
19.2788
-6.93689
1.45546
13.4548
4.84103
-0.678948
0.240002
-0.886454
0.455781
0.561657
-0.428793
2.94788
10.8376
59.5698
0.190703
-2.49903
3.58852
2.94371
13.2132
-8.19626
-1.16825
-1.40835
109.012
8.69363
24.7224
28.0478
-7.9397
-4.28829
-0.708917
0.0996234
-0.516915
0.522034
1.16304
2.21603
17.655
-0.118334
-3.76432
3.54492
1.05181
2.80763
-0.509622
1.87103
-6.25339
-6.37648
4.58234
0.768296
4.88341
-30.9517
14.5643
10.386
6.77177
-6.66615
6.52528
-1.30752
3.96493
1.42921
-13.5822
-7.04239
10.3412
-2.3872
6.89231
9.63539
20.683
1.00971
3.02328
-6.17812
66.7953
5.34762
24.6044
4.27835
-3.25154
0.156225
-5.48008
-0.43308
0.577253
-2.01401
-4.43222
-3.63402
-5.47975
-6.57497
-2.4402
59.5147
4.99996
15.4729
7.20033
-1.77438
-0.340459
6.44436
38.1876
32.664
9.73881
36.5727
14.9696
-9.01362
-4.20912
-7.43451
4.66443
-4.84194
1.55229
14.8378
8.6538
0.919849
13.3358
0.245305
8.79185
22.8862
0.172789
27.386
0.883582
-1.33926
0.367544
6.96976
-3.73149
1.79855
7.7737
17.2079
2.67456
-0.418742
15.1851
-4.96158
-3.62471
-2.45603
-5.84492
-0.364911
-5.828
-0.459974
1.56299
0.40446
1.80893
12.4715
56.9932
2.22169
12.3
0.61546
7.42607
16.8015
17.5481
14.5367
-9.34883
7.00074
12.8204
5.62967
-6.58179
18.8405
-4.0844
-4.03885
-2.03292
-0.178333
0.268537
-3.63582
-0.899866
-1.74918
1.53962
0.575419
9.28011
3.34229
-1.41511
-2.42628
-0.642059
-2.40858
33.9386
-1.0406
0.37064
10.0907
6.62754
1.41829
-1.44506
4.71822
58.3732
13.1057
22.8892
51.5523
0.130057
14.5894
2.19943
2.19224
0.492541
32.8361
26.3378
9.70233
14.13
61.5934
2.28695
0.620384
1.48517
5.31945
2.70909
-5.43762
19.5397
6.51294
-13.6243
2.4479
22.692
8.42083
-3.69473
-4.21768
20.0739
0.765787
0.367333
-0.4117
19.7632
-3.22108
1.65789
10.5072
-0.268942
-0.516505
-0.887626
22.4751
22.5557
11.6592
-0.0709783
-4.40785
11.957
17.674
-5.37061
-1.72283
-1.13696
7.34526
22.001
-0.372353
-3.38719
12.3727
6.02067
11.7076
45.7729
19.2568
9.52416
51.5159
62.8592
0.14742
0.93062
-0.4368
-11.9794
16.0116
-7.87133
-3.81088
0.856618
8.27197
-5.57643
2.97418
-4.99641
106.906
22.0621
56.3194
12.3797
31.327
44.2473
11.9495
31.792
22.0339
-3.46585
-5.66775
-3.53722
-8.20178
10.1352
-0.171453
16.3569
-7.74621
-3.80432
-3.56437
1.37782
7.89516
23.7546
29.2521
-3.68571
8.11123
6.91077
2.77147
-0.711218
4.37147
68.5986
-7.54889
1.33005
2.50817
3.29344
2.04143
3.93346
0.289107
-4.22526
2.74353
-0.562383
35.4565
-1.19157
-0.341893
8.17893
5.90802
1.14427
1.428
3.41099
14.1465
3.02934
14.0094
6.98973
13.9669
0.312489
-4.44407
-7.09381
-6.38402
1.07224
0.0184866
17.7507
1.54047
5.65486
9.90076
8.56719
29.8045
9.82935
-0.319432
0.633568
-2.91167
0.100273
1.70788
52.3105
37.3027
0.631605
-1.50549
-2.15684
22.3131
16.033
17.232
22.5279
39.316
39.1124
6.12184
-5.92298
-10.3051
-0.677732
-6.66686
15.2067
8.39878
-0.941852
-0.533698
10.9469
17.556
-6.98002
13.3549
-5.3449
9.33386
14.9988
-2.02099
-8.27465
11.4621
-0.918576
18.5818
-5.673
2.52543
15.1616
2.47518
-0.317348
7.34187
0.397848
1.32603
1.23397
0.661146
1.54279
9.92688
8.7749
20.8107
13.5522
0.422616
26.2069
0.131045
4.18673
10.8795
7.06833
2.30791
2.7323
3.11224
11.9751
0.707539
1.44113
3.78108
-10.9338
8.7359
65.962
-1.25496
9.85414
2.78065
-6.52601
-6.95491
8.68573
2.4493
120.039
80.7642
93.4876
13.8047
-22.9216
6.11509
87.9538
120.866
-2.08858
-8.14577
-7.61964
46.5191
-4.8996
27.9251
47.5847
10.0613
19.807
29.0503
5.50821
0.355404
3.65347
2.44998
7.2475
67.7866
40.4388
60.1616
76.8505
36.8361
14.6407
-9.82092
25.2301
27.0873
10.0133
11.176
3.85598
3.5801
-0.766305
12.6993
-14.9847
57.8118
1.73161
37.2331
-15.6086
90.1145
-1.19022
61.0902
17.9558
176.966
73.8112
-1.92692
37.319
230.514
92.8993
6.3226
19.8237
3.21474
-7.00514
-0.103131
-6.42596
9.93944
24.2
9.77702
7.5826
14.114
10.8077
88.3646
47.3264
20.6966
3.65622
11.8645
16.3925
-7.26868
-0.0810358
-6.45293
46.5033
3.18792
-6.71894
-5.95747
40.6376
60.7662
7.3566
138.51
53.879
-1.48166
65.7801
-21.6332
-3.87709
0.514614
-1.47867
-0.331402
7.6129
38.9369
1.06546
-6.05978
-1.18729
11.2747
1.07805
12.4004
2.97119
0.561492
8.18202
-0.409441
-2.00535
-1.8983
-4.10024
4.76673
3.28739
-2.13379
-2.70538
70.7485
-9.18967
-20.3896
11.029
2.75739
-11.4532
6.47227
-7.27967
19.2226
6.36344
0.90644
-4.76632
-6.97304
-4.77168
44.6909
45.71
48.5904
112.775
77.674
-15.5088
32.8564
-1.95014
-4.8615
41.1521
-17.1428
2.67829
1.49515
18.6043
7.2013
7.02337
-4.22214
3.45392
-1.74121
-3.12139
6.42561
8.46772
11.3787
1.93052
-0.93011
-2.24295
-0.712814
-5.58493
-1.92616
6.32602
-0.0503223
-2.83958
-4.30244
-1.30159
8.66227
-0.312434
-5.31267
-0.930453
9.96805
-10.8884
-12.0346
19.1428
-3.51169
-2.52522
-5.25084
-7.56531
17.5075
2.05781
-3.7841
5.54533
11.3574
4.1167
2.16679
-5.95198
-0.205475
-2.11197
12.06
7.55816
2.14748
-3.75758
-6.39809
-3.7022
2.75585
-5.81851
-1.73834
-4.88486
1.48051
23.473
41.9063
-1.1291
-2.92701
-6.48932
-0.688124
-4.66348
-2.66415
-5.09303
-3.70999
-0.254789
10.9169
1.41156
-2.42544
-4.95159
-2.66619
6.39907
-0.28959
5.69329
-5.55901
0.0322117
13.0571
22.1943
2.21041
-3.44103
-3.58914
-6.8336
1.60578
-7.52294
6.61011
5.96492
11.4094
15.4474
18.1598
16.8098
6.97852
14.1479
-4.65705
2.46772
-3.52525
-1.9263
14.5517
11.414
-2.34777
20.558
9.35186
-5.00995
3.67443
2.81293
-1.5347
6.58848
3.08047
19.6651
12.8265
0.326424
-2.45557
3.12568
-1.36733
10.5809
2.60954
5.90014
12.7662
6.0108
8.88944
0.0430368
3.45541
38.5406
-4.1586
30.2515
7.77051
38.6965
4.83773
13.9303
1.92064
-1.85946
6.624
2.81149
8.71571
-3.28591
-5.56757
4.4443
-2.99754
-1.0975
2.17748
1.36382
-0.293611
0.998109
2.60266
11.9379
-1.85174
41.4328
20.4081
9.99641
0.929273
9.94472
3.40287
15.7865
6.63895
-0.426143
-3.80956
-1.70828
3.35994
25.2487
5.76175
11.2831
18.529
11.5218
30.1518
49.6727
4.74937
63.5912
49.4379
47.4108
-1.00212
5.26761
-2.73701
9.92873
-9.23803
-13.0893
-4.37829
14.7411
12.2428
-4.8268
1.42201
19.01
1.64275
14.0741
3.29027
6.48783
7.44981
16.3033
-6.57248
19.1516
-5.26326
20.3493
-0.390653
21.2878
0.0257412
5.76109
2.24325
7.48419
4.93992
2.8125
-15.9948
3.15166
3.58625
8.51224
1.19331
20.0221
-10.9742
13.476
-8.83971
10.2963
14.1663
29.9368
4.03101
5.7049
6.0973
-2.50047
-4.08519
-3.84773
7.77804
0.329132
-4.53084
-0.769608
6.66584
-9.54739
19.0529
20.4226
-11.0037
-3.71326
7.03424
-1.88281
-1.25579
-4.86485
-1.73459
18.2513
5.02749
-7.38823
0.798105
-6.2006
10.1309
30.3392
-7.68257
-0.714677
-8.63358
-5.59966
-6.8539
-5.05299
6.16657
4.3147
3.32681
-6.42887
-4.46743
-4.4937
-5.00536
-4.56481
10.8439
14.2702
4.33227
3.98865
-5.60737
1.83478
-3.59207
-6.18765
14.8083
17.0242
20.2461
2.35078
2.98904
32.1565
-6.62958
16.0823
-0.126446
25.2655
3.9527
3.33336
2.00062
46.031
3.57199
5.02862
-7.8544
-9.19577
-7.0869
35.5615
-5.29801
-11.0362
20.9573
3.734
29.8921
19.1181
8.54775
9.82596
4.43474
10.2568
8.70465
13.6659
3.22705
3.3597
2.9467
9.82404
29.4325
52.2287
57.2428
52.9197
11.5306
74.1121
38.0381
16.2597
-1.94595
-4.99026
20.7186
11.9044
0.823576
68.5478
4.70309
0.392545
2.16102
-4.49952
10.6727
4.64554
2.39487
11.2571
11.4344
-5.03093
4.31002
43.4049
1.55808
8.36307
-2.17698
-7.86411
-7.26294
-10.1188
8.12735
1.14323
2.18832
-0.894371
30.3882
19.4775
15.1947
-9.18055
-3.1971
-9.80384
1.3866
-10.1983
14.089
20.8065
-1.28428
84.2113
-0.566433
-4.99124
6.56618
0.265529
-6.82833
-10.1654
-2.78807
-6.9147
-5.85195
-1.34803
17.0639
-2.55056
-5.61006
12.5334
40.112
13.1595
-3.43403
-3.21685
7.29818
22.7793
57.2336
-3.13232
-0.000348974
-8.82655
-8.97605
12.0526
21.004
6.84247
32.3976
35.0832
28.1417
44.5464
1.06662
1.76233
1.28631
2.02843
2.72467
1.01943
3.35018
3.504
4.05009
-0.864712
0.889395
49.6247
0.797126
1.33675
-1.18676
0.322034
9.36292
1.35669
9.82718
-1.57567
-1.52508
-1.70533
0.203123
-0.96248
-0.52628
-1.8708
-1.11031
-0.527269
2.01485
1.11429
0.0900078
1.36683
1.23021
1.53091
0.477632
1.13298
0.734176
0.313322
-0.186665
0.560841
-0.018549
0.17066
-2.31504
0.114756
0.172442
0.82257
0.539792
0.841952
0.330406
1.47645
0.237529
-0.00795379
3.6185
3.9906
0.513522
0.0119521
-0.683617
0.403934
0.750116
3.29118
8.71979
23.3764
1.78251
1.24035
-0.90726
-0.0503327
0.0171996
6.23974
1.51771
2.91869
11.5191
24.0266
33.0524
5.89535
-1.44432
10.8981
-11.8909
28.2724
5.18594
-6.89052
7.23677
-2.28147
2.33095
-7.12983
38.1945
21.6957
14.9925
-7.48956
27.2996
29.5415
6.98009
33.1611
32.8185
-0.439267
3.97096
7.56991
-8.88578
23.0679
1.03663
-1.57722
49.5137
122.593
48.907
104.726
160.566
51.0741
4.28776
75.0354
17.2552
1.44581
9.47244
-2.45996
0.258059
1.21175
-9.17476
7.39481
0.278363
7.05981
34.6348
53.6432
32.7504
-1.89719
22.463
19.7477
-2.32783
16.0916
26.4281
-8.05327
1.55866
4.57763
-0.89774
3.36563
17.4222
12.5829
17.7459
12.356
30.8573
-6.02074
39.5592
21.5642
103.822
41.0924
26.5384
137.031
189.263
74.1069
26.1913
43.9622
154.234
6.99296
-4.94358
-3.50884
-8.30634
-7.67831
102.061
63.4539
206.591
31.2086
54.8032
-1.22322
-5.06336
-4.71593
43.847
21.9477
34.8912
65.5507
-5.45534
29.6132
54.199
-12.0446
14.7213
63.6709
49.3509
10.805
2.54953
24.6771
11.8592
-4.53676
24.6178
-2.08128
-3.8415
0.519986
-10.3416
-8.14662
-11.0392
14.5274
10.6415
6.98908
6.40214
54.3848
48.0542
-10.5699
20.545
14.0796
66.4258
19.1173
20.2847
6.84814
1.98023
-4.00474
-4.02497
13.0745
-4.39956
-0.591745
-3.6482
-5.84649
-1.64841
-1.58492
-3.18837
-3.24717
-5.45473
20.7641
29.2019
-6.87876
10.5176
-3.00581
2.06275
3.04309
-2.65074
-0.665643
6.56909
14.8447
-1.73089
4.47624
13.7409
-2.05785
8.34652
-3.6709
0.572696
4.22434
48.0481
12.4338
3.74471
18.6717
1.51853
31.8132
35.1552
-15.6798
34.568
31.5142
44.0657
-1.56812
-15.9042
-10.7431
-3.94188
2.01999
1.7513
-0.402845
10.095
-1.46562
-9.28425
-2.87981
2.6035
26.981
21.4475
11.6743
44.6524
1.00485
1.69135
1.03598
-5.02385
-9.79587
-0.964048
-5.3831
-3.33065
14.4348
18.7506
12.0572
10.076
12.1879
8.8214
8.86984
32.6093
35.5291
-3.04611
1.47844
0.401465
10.307
0.506054
-0.255242
-0.412136
-0.5823
-11.1236
61.3511
-2.34381
9.42935
-0.640392
6.78164
23.2251
-0.365732
0.321734
-0.424934
-0.461022
0.0196919
-0.312032
0.216447
0.874691
0.571098
-1.78505
2.63045
-0.00599634
6.99116
1.49684
55.3743
-1.18985
17.522
6.70769
51.8787
53.1234
39.7528
56.4402
74.0296
10.4929
-1.11752
-3.64133
38.4065
17.813
51.515
67.7671
29.2017
41.5727
21.9387
25.7773
30.0909
24.3614
76.4822
31.9761
-0.555965
-0.219793
-10.8233
-0.467435
-1.13183
-0.407823
-1.65056
-1.44624
2.5674
-3.15946
-0.144782
-2.67334
-0.14176
0.22722
0.129352
-0.0219136
0.33004
0.0886326
23.2698
6.34701
21.958
11.7185
-6.78953
2.48088
-1.95226
0.458794
-0.750488
0.670343
-0.330942
0.924736
32.7544
4.0042
5.8923
5.27699
-1.66388
2.75939
0.155745
-3.97542
5.4201
-0.802892
-0.381554
-0.327301
0.121751
-0.212857
0.00817585
-0.15661
0.408777
0.0760997
3.2854
2.06585
0.382778
1.26455
2.71608
-0.0558285
0.508166
-2.24163
-0.00699031
0.661613
0.405697
0.556477
0.0854427
0.181501
-0.498536
0.284208
-0.286845
1.0555
0.576829
-0.191942
0.989559
0.942385
1.09281
0.878762
0.630151
0.49436
4.13204
0.434961
0.511793
1.71247
-0.449407
0.377083
0.370385
0.190302
0.630297
-0.123976
0.380196
0.421478
0.422431
0.89961
0.578224
-0.269614
-0.860784
-3.77934
0.265994
0.179577
0.373858
0.321435
0.639541
1.09146
0.940524
0.861281
-0.370704
-0.327263
-2.47122
0.00412619
0.143701
0.0642747
0.0954753
-1.06646
0.298685
-0.881205
-1.10038
-1.46016
-0.145994
-0.559915
-0.269538
-0.982375
-0.930899
-0.373554
-0.332099
-0.0554966
-0.0519484
0.330422
0.0774243
0.154412
0.306446
0.158943
0.0704313
0.0283876
-0.270736
0.324461
-3.23329
-0.278815
-2.59469
-0.897752
0.556991
0.308909
-0.0681393
0.437624
0.678214
0.457649
-0.14952
0.845331
0.532594
-0.0149266
0.0833405
-1.45832
-0.429871
0.557787
4.95075
29.1555
2.90185
13.0469
-3.08596
44.7257
14.7557
-0.64278
-1.18753
-0.079418
-3.18819
-1.53733
0.283951
-1.13296
-4.35047
6.54264
-4.46889
83.4822
24.3329
6.42716
70.3254
53.2933
101.954
0.452261
0.129665
50.5457
-0.639262
0.064795
0.41337
0.320093
0.23619
0.222438
-0.152987
-10.6618
-0.960572
1.60429
-1.37637
-2.7166
19.2258
0.451212
0.313159
0.250164
-2.08682
-1.34306
-0.80383
-1.75356
-3.24106
-2.54113
-1.4931
0.0215528
-0.7443
-0.384182
15.8321
50.8822
49.5781
18.777
33.6295
41.7177
5.46348
69.1466
18.6016
-5.06519
-6.14535
-5.54013
-8.67169
-6.4632
7.05812
31.1384
-0.2211
68.5749
44.2556
2.47596
88.427
-6.0654
-8.67742
-8.08535
-3.58556
-4.67721
-7.2114
-6.04941
-6.15505
-5.5755
-1.06637
-4.02151
-1.36623
-2.10005
2.5217
76.2981
66.7778
23.3181
111.991
10.2442
1.50634
132.898
20.5748
6.40796
34.3824
-2.28518
104.383
39.3168
91.2213
2.58064
3.38081
19.857
-12.7934
2.38195
-6.92505
11.1745
20.4456
10.9119
-0.660034
3.77197
6.85857
4.17406
-10.3617
13.6611
12.8518
10.4937
8.92882
39.7981
48.5895
2.35396
11.1233
7.54694
-0.799254
12.4314
2.83414
4.19238
2.28166
31.6397
14.7338
24.64
18.4387
10.3806
5.20563
-9.45745
2.00588
5.27619
-7.77445
-7.2894
23.5877
15.5782
-1.31851
6.7587
42.9611
3.53046
5.20376
4.8893
11.961
-2.99797
-2.99336
8.03478
4.57093
2.38413
-5.82
-9.64115
5.55696
8.46422
15.643
1.01573
14.2168
31.4289
-5.85125
5.29718
-6.38898
2.89422
4.20039
-5.6031
4.60262
7.84417
3.11757
10.1414
11.0737
5.48279
8.08849
-7.97138
9.3176
11.0691
1.49484
-5.41532
1.23744
-2.17396
-0.978027
-7.30047
-9.26528
3.39769
21.8286
-11.9322
-3.48315
1.31745
1.70861
2.99152
1.03339
2.74493
10.4882
5.63211
-13.8457
5.38199
10.3194
-11.6082
-3.07374
-7.86797
-6.82826
-1.28596
15.7796
-9.54615
15.0736
7.49885
39.5976
15.4259
24.2839
-7.05942
25.4568
4.40532
15.1213
19.298
-4.33356
-4.07916
18.642
2.57972
-2.45959
7.27343
6.15041
38.752
6.20056
43.5765
5.58385
-3.50868
15.0393
-7.66787
32.5046
2.56111
10.172
22.5966
-13.8867
14.9679
13.8589
22.5446
9.82089
29.4928
11.3859
15.3895
18.7603
-1.73191
36.0899
-0.771673
25.0761
35.9894
-0.866178
-7.11763
5.17033
3.64822
9.55588
12.4452
4.33654
26.8937
-6.50079
9.78304
6.47583
6.26041
-8.05829
5.30375
-0.463645
2.74846
1.99714
-6.01615
9.49834
10.1987
-3.88879
2.1249
-8.0785
-0.419777
-2.69866
-2.76853
-8.84312
-5.82447
70.8114
19.0788
12.4093
56.6152
8.09514
27.1397
50.9273
49.8965
24.0858
0.418918
42.6728
13.7313
-12.3764
36.9901
4.04222
-13.2078
-6.16748
10.6796
5.3109
68.0727
25.3611
33.7563
4.50744
12.7588
1.21639
6.27724
19.611
-2.49233
-9.07591
5.21254
7.10572
6.17121
15.901
14.058
-2.39115
14.7224
2.1791
-17.4322
36.4126
10.3439
12.2003
23.0305
64.4961
50.4954
22.6601
6.17252
9.53031
26.5958
-10.0976
3.02294
-9.73412
-3.4298
-0.346506
-2.25751
18.6513
9.01385
1.34913
2.96232
3.13756
-3.00902
5.98293
6.5729
-6.01492
1.30555
-8.42107
-3.68381
4.83742
25.3161
9.37458
-3.8046
-4.64395
2.42384
30.1762
16.4727
6.86228
9.1263
-12.0129
-1.75584
-4.90693
6.03002
28.5103
-5.19101
23.847
5.9487
-1.16547
0.508538
-0.226808
-0.604566
0.0312641
-0.694608
-0.488229
0.689439
-0.194927
-0.346302
-0.0362624
0.395679
-0.319309
-1.00802
0.0627638
-0.129145
0.845716
0.110529
0.960534
0.665755
0.764004
0.379866
2.00262
8.57414
-1.90307
-0.583519
-0.553838
0.854631
2.57346
54.8876
58.2635
98.3343
31.0041
59.7041
-0.937593
-0.807031
1.03497
0.470456
-7.50556
-2.47476
-1.91192
25.1554
-1.11897
4.9699
53.4866
0.138225
39.4733
42.0369
-0.355754
0.757764
54.6263
8.4143