# vtk DataFile Version 4.2
vtk output
ASCII
DATASET POLYDATA
POINTS 2562 double
-0.206508 0.367375 -0.310042
0.222904 0.375891 -0.309841
-0.192946 -0.559358 -0.102588
0.248116 -0.57079 -0.107306
-0.0030319 -0.457039 0.40345
0.0157424 0.0208355 0.328583
0.0148345 -0.218982 -0.383231
0.0099641 0.302749 -0.581217
0.245665 0.0313177 -0.418876
0.280521 -0.148888 0.231694
-0.190372 0.0328089 -0.403794
-0.218831 -0.145049 0.220604
-0.147495 0.0591529 -0.0571391
-0.142324 -0.0431702 0.333975
-0.0467494 0.111044 0.00296963
0.0832722 0.109574 0.0110439
0.00877196 0.434845 -0.301959
0.175364 0.51546 -0.423229
-0.119244 0.489851 -0.41116
-0.188438 0.154788 -0.572506
-0.278919 0.312831 -0.341184
-0.224407 -0.0963288 -0.0955824
0.175361 -0.038291 0.347305
0.196781 0.0587864 -0.0356184
-0.190855 -0.330972 0.393403
0.0179958 -0.144874 0.482764
-0.247732 -0.378578 -0.208199
-0.218095 -0.371925 0.160142
0.0109298 0.0374707 -0.657307
-0.128691 -0.0605957 -0.474781
0.309436 0.304712 -0.344161
0.226758 0.156263 -0.584661
0.276934 -0.379787 0.173901
0.229239 -0.330762 0.395456
0.190423 -0.604516 0.33722
-0.163681 -0.605179 0.334114
0.000318991 -0.561613 -0.0857982
-0.15842 -0.553909 -0.279217
0.194544 -0.556099 -0.27936
0.165542 -0.0624516 -0.482974
0.294412 -0.39742 -0.211076
0.284172 -0.0998576 -0.0899635
-0.169734 0.268036 -0.269947
-0.103774 0.0931572 -0.0259754
-0.1042 0.28148 -0.223961
-0.192941 -0.0943479 0.28729
-0.156034 -0.0207272 0.193161
-0.191012 -0.0628009 0.129503
-0.018712 0.0527228 0.225844
-0.083559 0.0222771 0.225289
-0.0609446 -0.00860039 0.347691
-0.0232223 0.322143 -0.211399
-0.0927419 0.421997 -0.318355
0.0548283 0.0538787 0.229898
0.0174929 0.111518 0.0121316
0.123054 0.430887 -0.317076
0.0537226 0.325458 -0.208415
0.128772 0.286582 -0.21335
-0.0808149 0.513925 -0.375256
-0.163281 0.415178 -0.359942
0.181907 0.455304 -0.374821
0.114778 0.510876 -0.373841
-0.0680372 0.407333 -0.506829
-0.00603645 0.478159 -0.412041
0.0940736 0.414376 -0.516213
-0.278622 0.385606 -0.375937
-0.273729 0.361205 -0.320618
-0.112116 0.232344 -0.591544
-0.175966 0.333217 -0.4703
-0.203117 0.194724 -0.369053
-0.248763 0.288099 -0.409324
-0.217233 0.0967278 -0.503163
-0.199881 0.256803 -0.299713
-0.185256 -0.0359574 -0.242419
-0.184561 0.147021 -0.284277
-0.190125 0.00105067 -0.0730619
-0.221477 -0.131125 0.0722838
0.141374 0.0965417 -0.00777503
0.203251 0.264358 -0.24698
0.0958184 -0.00604908 0.352074
0.123107 0.0398934 0.238071
0.243156 -0.0668462 0.142139
0.198522 -0.0110652 0.206188
0.233702 -0.0964125 0.296761
-0.074174 -0.0826421 0.418998
0.0150429 -0.0524959 0.416819
-0.214798 -0.223322 0.312414
-0.173989 -0.14323 0.382561
0.0163243 -0.245374 0.455089
-0.0766754 -0.205162 0.43997
-0.127026 -0.408778 0.418261
-0.240198 -0.239168 0.0129886
-0.221557 -0.256368 0.201964
-0.214036 -0.186343 -0.263261
-0.244462 -0.233511 -0.143259
-0.168945 -0.440954 0.0414802
-0.226248 -0.372148 -0.0837159
-0.234399 -0.494545 -0.171153
-0.196028 0.0375926 -0.591626
-0.179494 -0.0202311 -0.465604
0.00998704 0.138016 -0.65658
-0.132438 0.0938408 -0.649301
-0.055691 -0.127681 -0.424895
-0.109126 -0.0200142 -0.620749
0.0120229 -0.0549256 -0.590797
0.209497 0.347055 -0.498406
0.138425 0.236061 -0.59396
0.302318 0.37521 -0.31638
0.297598 0.396931 -0.388846
0.278409 0.0888378 -0.522185
0.27774 0.280513 -0.423725
0.254311 0.168579 -0.384362
0.219102 -0.446256 0.0367396
0.2666 -0.520418 0.286325
0.184373 -0.547519 0.20108
0.270234 -0.229017 0.323529
0.280191 -0.393248 0.323651
0.284082 -0.265936 0.216563
0.13317 -0.572795 0.413347
0.233054 -0.511386 0.391185
0.154587 -0.408924 0.418841
0.107965 -0.572722 0.216043
0.170646 -0.597162 -0.0918063
-0.106457 -0.572083 0.413927
0.000855672 -0.58135 0.325572
-0.137362 -0.596118 -0.0914341
-0.0816534 -0.575667 0.217897
-0.146076 -0.541881 0.205331
0.130375 -0.606186 -0.209576
0.256576 -0.604611 -0.21746
-0.210621 -0.599022 -0.212614
-0.104004 -0.606175 -0.212043
0.110928 -0.43697 -0.293484
0.00230922 -0.535755 -0.252738
-0.0860889 -0.442314 -0.297685
0.273637 -0.516163 -0.263932
0.280393 -0.523146 -0.169788
0.0907303 -0.126887 -0.431295
0.194666 -0.401517 -0.306507
0.264563 -0.19637 -0.264355
0.24452 -0.303735 -0.297305
0.226966 -0.0146934 -0.476878
0.282565 -0.394533 -0.080867
0.24114 -0.0523607 -0.243148
0.287242 -0.236643 -0.151999
0.287958 -0.246498 0.0328445
0.282949 -0.134663 0.0887568
0.104091 -0.198605 0.456094
0.203356 -0.144575 0.391746
0.103589 -0.0859172 0.426125
-0.213542 -0.513464 0.274105
-0.198383 -0.506787 0.388972
-0.21878 -0.38302 0.311728
-0.155242 -0.396686 -0.305158
-0.222231 -0.494172 -0.252507
-0.191305 -0.292093 -0.288378
0.242056 0.0329992 -0.603123
0.13467 -0.0227898 -0.626507
0.146654 0.0973189 -0.65336
0.243667 -0.0103676 -0.0571992
0.22543 0.127696 -0.274237
0.234136 0.243995 -0.28495
-0.203667 0.327246 -0.302734
-0.141348 0.272027 -0.246757
-0.158643 0.330503 -0.290632
-0.126648 0.0785746 -0.0429288
-0.107274 0.171086 -0.178054
-0.125306 0.160994 -0.195327
-0.0551361 0.193876 -0.144337
-0.082969 0.180838 -0.158984
-0.0758443 0.102971 -0.0102665
-0.215514 -0.122231 0.254767
-0.193936 -0.078965 0.218685
-0.210484 -0.107266 0.184618
-0.15529 -0.0358349 0.272449
-0.18039 -0.0524891 0.250978
-0.179754 -0.0622945 0.317259
-0.174506 -0.00859688 0.047305
-0.175217 -0.0402203 0.163733
-0.151293 0.00623501 0.075461
-0.00275102 0.045547 0.285713
-0.0369222 0.029011 0.289647
-0.0198365 0.0151257 0.342647
-0.0592871 0.050436 0.132183
-0.0522522 0.0464285 0.227977
-0.0296171 0.0590392 0.134153
-0.104929 -0.0176069 0.348894
-0.0779742 0.0105441 0.292939
-0.114293 -0.0123618 0.288761
-0.125042 0.0261784 0.0980312
-0.123134 -0.00297453 0.212098
-0.0941661 0.0384528 0.116122
-0.105587 0.350571 -0.279388
-0.156372 0.387653 -0.311286
-0.0272589 0.213315 -0.143063
-0.0639858 0.301075 -0.214682
-0.048481 0.435606 -0.316439
-0.0539276 0.378425 -0.266878
-0.0123459 0.396358 -0.253171
0.0370386 0.0451242 0.286075
0.0180844 0.0544714 0.228141
0.0511142 0.110616 0.0130822
0.0354922 0.0622124 0.141987
0.0680341 0.0606712 0.142912
0.0016891 0.0618544 0.138953
-0.0155533 0.111691 0.00914959
0.169394 0.401357 -0.314808
0.128282 0.363967 -0.266889
0.175649 0.338541 -0.277696
0.0380365 0.396113 -0.252094
0.0811316 0.383024 -0.261227
0.0732769 0.431942 -0.311351
0.0898427 0.195482 -0.134253
0.0911769 0.307239 -0.208764
0.0622122 0.214466 -0.138085
0.00249883 0.221763 -0.139934
0.0325966 0.222104 -0.138456
0.015347 0.330098 -0.208373
-0.123652 0.438803 -0.348749
-0.207689 0.398064 -0.322306
-0.0442566 0.483257 -0.347069
-0.0897837 0.486202 -0.346533
-0.129977 0.455691 -0.385034
-0.112816 0.499275 -0.369913
-0.107287 0.522766 -0.39367
0.214256 0.40604 -0.337747
0.155081 0.466834 -0.352261
0.149185 0.525338 -0.394661
0.158374 0.511971 -0.3768
0.180546 0.507083 -0.393522
0.123193 0.488235 -0.347731
0.0603439 0.458761 -0.354794
-0.0299327 0.36162 -0.55156
0.01037 0.422026 -0.522498
0.0511692 0.363472 -0.551539
-0.0847697 0.516972 -0.423066
-0.0436116 0.454712 -0.445288
-0.0966752 0.452465 -0.439513
0.134674 0.456059 -0.440702
0.060302 0.445116 -0.457417
0.116521 0.516497 -0.426222
0.00140539 0.476304 -0.378352
0.0584092 0.482632 -0.393293
-0.0576139 0.52525 -0.39744
-0.258568 0.398407 -0.326277
-0.247408 0.371326 -0.313797
-0.203119 0.403207 -0.391624
-0.23844 0.399126 -0.360681
-0.282383 0.342048 -0.336439
-0.285085 0.374029 -0.344452
-0.303215 0.351874 -0.354986
-0.0531047 0.27239 -0.587206
-0.0954187 0.336646 -0.554648
-0.184228 0.253208 -0.530833
-0.148758 0.29285 -0.548087
-0.160261 0.19284 -0.590581
-0.120593 0.375014 -0.501427
-0.157541 0.399523 -0.432543
-0.198052 0.0926551 -0.3974
-0.209107 0.139119 -0.434331
-0.215586 0.0684198 -0.457895
-0.278739 0.30852 -0.370788
-0.23041 0.261174 -0.386115
-0.254654 0.279925 -0.352234
-0.214898 0.123174 -0.543448
-0.202835 0.175759 -0.46039
-0.193786 0.21113 -0.490954
-0.250186 0.3761 -0.421456
-0.231724 0.312249 -0.432433
-0.278797 0.343176 -0.395971
-0.238928 0.32843 -0.310057
-0.269963 0.298716 -0.315473
-0.260516 0.317802 -0.313833
-0.191579 0.268323 -0.288884
-0.138004 0.148246 -0.208215
-0.17215 0.0098593 -0.326878
-0.189517 0.0935508 -0.331392
-0.18596 -0.00198961 -0.17884
-0.17158 0.0541902 -0.261301
-0.217066 -0.070337 -0.169954
-0.199506 0.19265 -0.330289
-0.234919 0.267726 -0.331528
-0.20857 -0.0954527 0.100392
-0.220191 -0.139505 0.157771
-0.168973 0.0346926 -0.0666874
-0.193817 -0.0357489 0.0258674
-0.225362 -0.117789 -0.0172095
-0.215856 -0.0709012 0.00527897
-0.212014 -0.0446712 -0.0812982
-0.194174 0.22027 -0.300736
-0.16063 0.0662973 -0.198863
-0.147037 0.116433 -0.207706
0.167997 0.27286 -0.231465
0.223073 0.329274 -0.294579
0.113445 0.107577 0.00503732
0.118101 0.181608 -0.141263
0.164153 0.152898 -0.171941
0.143739 0.167522 -0.156356
0.167861 0.0787369 -0.0229728
0.0529887 0.0149129 0.343205
0.0753231 0.0372657 0.2956
0.14871 -0.00511988 0.299836
0.111341 0.0183112 0.301269
0.137226 -0.0140332 0.360305
0.0910826 0.051133 0.236551
0.0978174 0.0559322 0.146981
0.272412 -0.109997 0.197587
0.247952 -0.0824122 0.229509
0.270939 -0.125567 0.263289
0.193775 0.00787793 0.0938501
0.22089 -0.0349875 0.17636
0.218558 -0.0120012 0.0651672
0.214642 -0.0568855 0.331845
0.216831 -0.0517621 0.262618
0.190041 -0.0257767 0.288235
0.127892 0.0453456 0.134411
0.158533 0.0108411 0.226152
0.1614 0.0268782 0.114477
-0.0296178 -0.0239374 0.387014
0.0147246 -0.00860148 0.371486
-0.115303 -0.0574697 0.38344
-0.0747677 -0.0356054 0.393699
0.0166075 -0.098429 0.458968
-0.0277204 -0.0697428 0.425359
-0.024741 -0.114351 0.466205
-0.218555 -0.178627 0.269789
-0.213812 -0.148892 0.307957
-0.176087 -0.226111 0.385107
-0.191278 -0.182711 0.349492
-0.197269 -0.281276 0.351287
-0.186146 -0.116147 0.342562
-0.162454 -0.0876537 0.364231
0.00661368 -0.363742 0.417275
-0.0547776 -0.330192 0.424321
-0.0700996 -0.440703 0.419095
-0.0245777 -0.168443 0.48002
-0.0284049 -0.220497 0.456737
0.0190802 -0.186215 0.506244
-0.166623 -0.371858 0.415198
-0.10807 -0.305997 0.420881
[...]
POINT_DATA 2562
SCALARS Mean_Curvature double 1
LOOKUP_TABLE default
1.22117
2.55844
0.32372
9.4981
-5.31276
-2.72472
-1.73553
9.35448
18.8382
2.53001
4.25764
3.16611
3.28898
3.61835
16.7364
3.59157
7.89549
75.5356
33.637
-4.56622
6.23187
1.82073
-16.1408
3.63736
1.2176
-5.90011
3.78998
12.6178
-10.751
4.36646
16.3501
-6.19935
12.7554
-1.40977
5.86738
17.0132
-2.90071
-6.53356
-9.50467
3.73369
4.78086
1.4004
0.445403
8.64192
6.71001
-8.23943
10.0294
2.11564
2.7224
0.483568
-9.2326
2.02664
4.78358
1.85586
1.97757
4.21728
1.40026
3.1685
5.14224
-8.93031
-4.57801
40.168
2.81577
-9.62978
16.0979
43.2244
42.3028
1.26528
-5.55977
-4.09213
15.7619
2.21585
-2.5739
-0.286194
24.9863
6.28928
2.80234
5.09347
23.3622
-7.1482
18.7227
-3.55582
15.5503
-7.57086
-3.82626
6.9332
18.0366
18.0927
-1.63431
-4.57199
1.0378
0.33666
-0.256689
24.9095
7.20847
-2.0585
-3.65342
-3.52872
4.57507
10.7844
-9.44271
1.86588
-4.64117
22.9755
3.94289
10.9307
-3.95109
64.773
37.4903
7.85226
8.67302
4.40174
-3.17141
11.2267
3.8761
12.2268
1.4211
0.545717
17.0023
-4.99606
1.04043
-0.636352
19.7187
23.7127
-7.16536
20.3086
-2.6087
7.79063
6.62969
20.6333
60.883
0.866939
-4.00394
-1.83294
-0.800363
30.1658
0.437843
-5.28924
2.90567
7.61017
13.7923
4.28191
6.43496
-0.98342
0.744559
-0.340808
6.22655
-0.617316
0.298459
-7.85429
17.055
2.20676
1.38768
2.66557
-10.8396
3.79941
25.9381
5.3726
-6.80744
-1.23062
9.00731
-4.56136
-4.42872
11.2626
-5.87919
5.78459
0.158319
0.506941
2.43017
-1.0452
1.28248
22.3637
-2.93895
6.20881
-5.72194
19.4441
39.6853
7.53233
5.20865
1.28248
24.9253
-9.45744
39.2777
2.15565
27.1588
-0.316231
30.7073
15.1568
1.34886
7.05164
-7.16248
-3.90439
-5.44509
15.8633
2.24904
1.31935
-4.43986
0.604583
20.0581
16.3067
2.39015
2.01531
-0.785078
0.160779
-0.317201
3.07179
-1.08997
4.8632
-3.38714
11.0878
-4.22511
1.22351
0.86506
-0.0408448
3.18711
3.14799
3.28777
0.622045
-0.978774
46.4036
36.7216
27.4375
-11.296
30.1296
71.8348
-3.66179
5.95767
21.3731
17.4632
56.3273
39.578
-10.1958
7.89884
25.1707
4.59395
46.3358
-10.4407
-10.3241
-6.74151
-7.90877
59.9194
-14.1217
-19.2476
52.8562
61.258
2.01292
0.54488
5.697
-1.76945
3.88265
129.99
4.76501
9.77941
14.4912
11.4572
6.47399
-4.82277
-6.12055
-2.43261
9.75139
19.2413
13.464
-6.43365
3.38152
21.7993
-3.34454
-3.18523
23.5813
1.23357
5.73843
5.64884
108.894
13.4971
5.87669
0.498771
-2.91447
7.74419
0.573139
-5.46196
14.9776
-1.61489
-8.59106
-0.758406
3.76378
3.50176
-3.00164
-1.93592
9.44977
9.18496
-7.63618
-4.03602
-3.36285
-1.35571
-7.1907
16.9057
2.12912
-0.964717
-1.24536
-2.07361
30.0474
23.3346
-7.22481
17.4842
25.9919
3.68463
4.29091
14.6219
6.01927
18.9651
2.09779
1.60511
0.158806
36.615
3.24134
9.06492
1.76578
3.17685
-2.80255
7.92272
-0.612632
7.43475
13
-1.80544
0.0818723
25.0153
2.06844
32.4285
13.4279
-8.44976
-9.08883
1.59897
5.49509
-4.3849
-3.65793
3.83203
6.68987
-4.6774
83.7552
17.1146
-0.349959
9.2786
-0.924432
12.6076
9.16705
0.404533
0.0655658
11.0482
-2.33382
0.423518
0.755389
1.17065
-3.7831
6.32914
10.4212
-2.58546
-8.05849
-0.267301
-0.0253141
12.6777
11.9703
8.77213
6.69394
-6.16991
-1.22483
2.73049
-6.37648
11.9381
1.87693
9.66785
-0.806068
24.662
8.08483
-3.07612
4.77614
9.93594
-13.0103
45.5538
-2.64138
11.2495
-9.60609
8.7896
17.1225
7.47675
25.1854
4.94706
1.0795
-3.3839
-1.83547
7.26588
-2.39198
38.7116
-2.04735
6.48778
46.4212
9.29826
23.4941
1.30202
2.58069
-6.55812
11.3532
-10.8117
5.34533
7.42416
12.7309
19.8997
4.01482
52.9557
21.7511
-8.74108
-9.40127
19.4616
-1.94926
2.54376
12.5987
-1.56387
0.671534
4.90517
-9.05303
19.0243
17.3269
33.8564
-3.04497
-4.2066
-4.11159
-4.96985
23.7596
-6.27236
1.54427
39.8227
9.69724
13.6315
6.31489
1.56081
0.889997
43.9434
6.69709
4.5603
1.91824
1.6799
3.39697
-4.51091
1.26512
-0.0512158
24.7094
16.5677
28.6481
14.4131
19.1742
-9.61167
1.00921
24.2099
-11.8483
-2.20101
25.6201
-1.54904
8.98229
-2.48265
-1.23812
2.06157
12.9609
-7.08454
1.79074
26.5567
19.0627
-12.0015
0.159216
48.5784
-2.98964
-4.89881
2.0412
-1.581
25.0107
56.6251
6.24946
-3.18754
-1.56645
7.11736
-4.38709
1.12777
64.2421
1.35056
2.30939
61.6335
-0.609588
49.7603
31.621
7.97993
49.4508
3.02372
23.0678
1.1549
9.32761
2.28273
-5.27323
0.653188
0.56496
-3.19532
13.541
11.9257
-0.160386
-6.45908
1.30877
29.1747
-4.20312
-0.382547
24.1126
5.61041
27.003
5.2645
-0.145618
0.792932
3.37225
6.75859
2.73144
5.40834
-1.49587
3.80859
1.4232
-4.98346
-2.61148
-6.08781
20.4241
-6.79153
4.52642
10.3321
-0.0121989
3.24741
26.6295
4.36018
3.83069
34.6197
-7.0746
0.608908
-5.53744
17.4457
-1.64648
12.3941
-0.180041
3.48255
15.3144
2.29955
-0.211602
0.0570217
3.26349
0.603919
0.104427
0.660828
-0.580135
-4.06512
0.496298
4.6682
0.549105
-2.86423
-1.15058
-1.72038
-9.59165
20.0329
-6.31263
22.9433
-6.76208
-0.882154
11.8609
5.5479
30.7618
-0.73982
5.43162
27.7337
-3.16189
5.39349
40.3934
-4.43636
-14.2062
5.79366
1.28914
2.51048
1.58193
-2.02013
24.9227
19.3147
14.3202
1.9407
2.20028
1.39411
6.05055
6.31299
11.5121
2.35886
1.63264
-2.64283
6.95596
5.81478
13.9177
5.51749
-2.12702
24.9532
34.4319
2.83823
7.60446
-3.63185
3.21858
-2.04056
10.4181
2.73074
43.6427
8.05784
11.8401
39.0249
20.2308
12.181
33.2015
22.0368
0.88027
-0.113485
-5.64066
18.5537
-3.51065
7.1602
49.1661
16.0042
12.6812
24.3826
3.56485
4.62247
31.9444
2.34152
22.1281
15.6645
2.10373
8.43724
-1.78579
19.4924
-3.92071
-6.43599
-3.13145
-4.56756
-2.32863
-2.32189
4.53396
60.1662
5.69002
-0.241416
-6.24452
1.18106
-6.01151
-2.51742
5.40103
15.835
4.59483
-0.430251
-4.26848
6.94733
2.01439
-1.52556
-0.719301
0.297717
-1.54489
8.32834
2.76622
0.37332
1.27415
1.83362
2.11409
8.66067
-3.76844
-0.102517
-4.83957
7.2063
3.83666
2.9646
7.23123
-0.250223
7.33247
5.68969
14.6195
13.035
-10.1943
-0.698778
17.2402
-4.5746
-4.5798
0.120392
-7.90632
32.8575
14.904
0.307214
10.5628
12.9299
-1.01796
37.3864
0.777353
1.73554
6.7767
8.58959
12.2748
-2.17891
1.86513
2.31872
-1.68795
0.108879
7.16561
9.09921
12.5496
-9.38101
-10.4399
12.9264
11.8624
31.5677
11.3363
-10.2869
0.283844
17.01
11.6752
7.26274
7.39927
1.57365
13.3864
-1.09644
2.23702
12.8101
12.0368
24.3102
21.8421
-1.55547
-11.628
-6.73332
0.435485
-0.953289
-2.38254
13.3215
23.1153
-2.04167
-0.818844
2.89509
-1.13113
-6.6304
0.330775
8.20036
-10.5662
-5.10027
-4.98719
25.7819
9.22789
1.25868
3.89945
-4.73376
-5.99044
-4.2456
6.50167
0.925451
19.5159
-5.11018
5.54831
-1.57829
-5.05738
1.79825
-4.97772
-4.75039
-0.223892
3.12959
-4.80105
7.97036
8.18689
2.85021
13.1835
4.37931
11.6449
16.728
-5.29009
0.123362
7.59122
29.9953
1.24509
2.31484
3.96511
-3.03836
-2.04841
-9.77505
16.4981
2.38799
4.84598
4.99097
4.7966
1.98275
2.41369
-1.17091
-0.901173
-1.2416
-1.201
1.91727
1.45259
-0.47565
2.21461
-0.0342343
3.64698
1.64004
0.674825
2.30092
-1.27158
-1.22317
2.17056
-0.833988
1.9046
12.243
-7.38403
-7.9502
-8.27868
-4.27152
24.903
3.39071
0.538464
2.59758
11.4218
17.142
13.1165
5.47787
7.13537
27.2988
-0.708319
0.835668
-3.78668
0.425669
1.83781
-0.729961
5.39757
6.25651
9.34787
7.9291
-0.198307
2.88854
7.9841
2.57895
1.42618
-1.01171
-1.72202
-1.47859
4.56409
18.8756
-1.32431
15.2043
4.06282
-1.62528
-1.7464
3.36318
1.4016
13.9725
10.8985
0.690428
3.54069
5.66551
5.92147
30.0411
21.1795
-1.23723
-1.88233
-1.1614
-3.28613
-10.8931
-8.08309
-3.75342
2.03493
25.7562
8.0546
-5.32916
-7.17414
-0.358748
35.1679
57.2638
-9.51728
19.972
-12.188
49.7889
81.3052
5.89951
30.5153
56.2345
66.6872
32.0391
1.25138
2.92368
-11.029
-10.158
-3.7172
1.15979
40.1558
63.0244
63.1947
10.9558
56.4866
38.8365
33.1581
102.085
18.8995
-7.13798
-6.85829
1.88361
-4.00579
-3.01502
20.1251
19.5413
11.213
16.2791
50.2433
-7.06082
13.3816
-7.02589
14.9463
-1.61837
-0.334141
-7.79983
8.50624
24.7567
80.2816
3.90424
33.5986
-4.50189
2.05544
60.1133
10.5023
-7.53002
1.28442
2.28079
2.26645
51.7146
8.19988
-10.8935
1.60978
-12.056
-5.98835
-2.52234
6.68429
-8.43194
2.93041
-10.5396
-14.1531
-4.28019
-1.64188
39.5951
28.6938
6.28091
45.7348
56.1108
26.7552
40.3221
41.2676
15.5642
26.1775
54.496
3.95284
-18.9504
21.3319
36.5845
1.67161
13.0518
53.0378
23.9533
64.8578
77.8154
-11.4313
-10.678
32.4461
4.50232
18.3076
-7.92079
-1.80671
-9.3061
23.2477
3.50132
7.2123
49.588
11.0434
39.3029
120.069
10.8999
8.88674
39.2478
60.8163
13.5938
-3.36476
0.691126
-5.05399
3.93768
11.8239
8.92336
11.3674
18.2814
19.3131
-0.440967
33.6612
1.02091
1.88082
3.1927
2.81508
0.793051
-2.92881
0.517104
40.3857
3.5785
-11.9708
6.15995
8.10003
3.28365
41.1495
-0.804913
4.60704
-0.351799
-2.11388
-5.37497
-0.159602
3.4014
18.1949
7.43831
-1.83137
36.9535
40.7547
-3.42152
45.5852
36.93
-2.4794
-6.93737
-5.27165
10.7812
-4.86061
-6.20054
12.6532
11.4433
3.73157
-4.9105
-5.15055
-4.44491
-3.98769
-4.18794
4.96096
4.53862
-5.5778
21.6032
38.5989
33.9
0.0299327
24.494
-3.95694
2.25059
-10.2276
-0.661366
0.990706
6.96056
-4.33666
19.7656
10.7848
52.8791
46.1893
3.12585
10.2467
3.72188
2.22053
-9.1174
42.0941
36.7342
27.4168
37.0118
4.79361
31.4813
43.2595
0.926651
-0.470587
13.3279
3.02277
1.20699
0.968448
-0.16126
5.99408
8.97282
-0.46454
2.42172
4.46116
-4.70714
-0.860286
-4.88902
0.467574
-1.77258
17.4338
10.7988
2.26597
-3.70329
-4.35018
-5.95488
-2.60799
0.471988
-4.57719
-3.05889
69.163
-3.5868
-1.5712
-6.98466
-4.06638
1.7349
-1.31875
13.0764
2.86405
16.4134
3.38809
-4.47958
2.53586
4.4792
14.1446
6.25829
3.45386
-1.95634
-2.5122
6.35179
12.8344
10.1015
-0.00337661
-0.557046
1.69775
5.91028
3.81098
3.85162
-2.09909
-7.11086
18.2511
3.8886
-0.640088
4.03218
16.7991
57.5492
19.607
6.7394
-3.34861
-7.32412
-6.9485
8.89314
10.9887
-2.83409
-1.78806
-0.819579
7.76194
-0.960822
-0.0200545
-0.0353837
2.57544
-5.74788
5.66751
-6.0193
-3.88261
1.96092
5.98647
-6.58015
-1.06242
-3.23018
6.89177
1.49083
3.14201
2.90274
11.0128
1.83155
3.54441
0.911507
0.657251
-4.71726
8.63086
-1.18289
7.91318
5.9345
5.03602
8.96399
-2.48607
0.774358
-1.97617
12.9165
-9.02048
-0.744553
-5.14415
-7.59079
14.295
11.5472
8.34803
0.465321
7.97831
-3.39185
-3.38881
-3.62789
1.80722
-1.91058
6.1236
1.3838
-2.00835
1.72434
1.40241
25.0468
2.56199
35.343
-0.642431
17.3859
25.7344
12.0956
29.0156
14.1555
-0.305331
-0.32855
0.0517043
-7.58427
14.4555
0.42895
-2.36466
-1.84478
12.6059
29.0883
14.3207
-0.23531
-3.26201
5.22633
-7.45258
31.5323
4.41484
11.9146
-5.40995
14.0109
-2.05837
-5.11009
0.57712
14.3049
-9.08663
2.97586
-0.241569
6.20924
5.58322
11.9854
9.65806
-1.2901
18.0877
-5.63934
2.61547
-0.230159
1.7612
9.89691
-1.16851
15.9552
0.891581
-6.95011
-2.11167
-1.14316
-1.92563
9.6052
21.8645
7.3031
-8.67191e-05
-2.32244
7.24225
-0.314386
0.416637
-2.77612
46.4935
2.04893
13.4502
30.0083
39.1294
22.6324
14.5485
22.0755
-0.198784
19.1055
3.46454
-3.87515
8.59071
-9.01901
1.59246
14.2788
7.09647
2.2902
2.68954
21.3601
3.78742
3.38604
17.3233
7.9082
-3.66232
5.43898
-6.90641
13.4427
11.242
14.2546
-1.39277
-8.37155
0.160102
25.4458
4.31633
-10.7012
16.7104
38.0882
21.5347
22.2513
2.50942
-6.48457
-6.5117
-7.15745
1.65475
6.69876
6.98626
0.0455678
-5.645
0.620192
2.68903
0.489028
-5.32205
37.7317
25.7228
-2.22096
9.09522
40.3726
-4.98221
2.02834
-4.90162
28.6688
9.85315
44.1172
0.895886
1.16028
1.22569
-2.64056
2.36621
-8.72453
20.5145
-0.857711
-3.50355
7.21019
-2.67957
3.14518
13.0276
19.6246
1.99538
-6.78642
16.9444
3.30288
16.6777
11.186
-12.2543
2.25575
37.078
7.97962
13.4604
-3.22431
-2.16076
1.07265
1.46826
-0.259476
0.795345
-0.0744353
0.160708
0.423018
-4.49524
-4.84062
-5.59584
18.0934
12.5403
-4.34567
-1.3124
1.61065
0.272342
0.370624
0.44177
0.177475
-0.377713
-2.95454
0.891947
-2.80198
0.742428
-0.615238
0.927338
-0.746255
-5.67851
-3.20561
0.654755
-2.6362
-1.84557
-0.971123
4.29323
13.4783
21.3995
-6.07282
-4.9394
11.3619
3.59103
-4.78882
0.42415
-0.880987
-2.35897
11.5248
3.41061
7.76933
-3.25726
-4.14434
6.4368
-1.67411
11.7384
5.32042
46.8629
14.4088
-4.51272
2.74646
-6.04566
-7.13977
2.34889
-7.94528
10.6101
9.35018
1.34336
3.8711
5.77736
1.2236
0.648824
-1.71706
-2.85566
1.9093
9.86752
4.30216
19.3272
21.1298
15.0035
-6.54399
4.0339
-4.47012
13.3282
2.61106
-3.82583
7.60871
5.3001
9.74235
5.2107
4.35247
10.1553
-6.2373
-5.21957
6.13629
4.27883
0.562904
18.0905
-3.79479
-1.80193
-2.56659
1.57681
13.3371
5.69447
-6.21806
6.91903
2.6768
18.5884
-1.00397
7.58005
-5.71081
-3.63308
35.9383
43.4342
27.3776
-8.47463
3.95214
1.71011
-3.65327
30.6307
3.68737
1.37655
20.8089
30.1321
-0.0955654
-3.67371
3.91465
10.9465
29.7798
5.51447
-3.69915
-6.55735
8.69102
-0.68955
10.5356
-7.50936
6.6093
-3.13472
21.9074
18.6472
-3.03945
11.0769
-2.77742
15.9489
39.3821
-4.2888
-2.56959
17.1851
1.26558
12.4462
22.5674
30.0585
13.5725
2.59362
9.84357
7.9284
4.82696
-5.64063
-2.10294
-0.00549574
-4.29389
-2.8879
1.80315
-1.06277
9.72902
-8.18022
21.6111
0.771205
2.78353
3.20301
10.7551
-4.81976
9.58706
0.836429
-3.15693
16.225
-2.55428
-10.5064
28.505
-0.780183
2.43737
45.7225
2.46727
6.29653
-6.06554
21.85
6.92969
11.2824
50.1683
-2.72191
2.52783
-1.58548
29.2544
16.4137
0.785529
2.86169
34.0516
17.4938
35.0384
5.54148
-11.7015
25.1628
-0.121856
58.2049
-7.42989
11.3952
2.84605
8.37483
0.0773443
10.0964
2.25618
32.3484
-7.444
2.60593
3.99566
-5.50235
26.4548
3.37542
21.2688
42.4746
-4.69443
9.51471
7.31173
-5.14663
14.1304
24.1861
13.2949
25.2299
10.6748
1.33893
7.77309
44.9142
90.024
56.4298
21.6454
2.96472
-7.50808
2.32294
5.30291
7.58638
48.3977
9.32918
15.0582
64.7292
7.64096
69.5646
6.19647
35.6559
-11.2063
-3.61454
1.65323
-11.3313
5.63066
28.4529
10.722
3.11621
0.374175
-3.91536
8.66016
31.8534
17.3893
14.0429
3.04908
-0.854007
1.12434
4.06428
5.08355
13.6767
-5.0496
3.64936
-6.31507
35.9443
-9.33618
7.24085
15.121
14.7304
13.7706
-1.39654
6.55812
-6.21078
55.5659
9.44574
-4.36994
-3.71065
4.66846
1.4378
1.2947
53.0826
9.76168
-5.17795
11.473
2.53738
40.005
4.93518
-2.23454
35.3597
-9.01467
-4.37608
-2.49625
-8.71919
4.38644
49.1019
10.0275
-8.2951
15.657
-1.20455
2.67625
-2.30471
-3.24871
-5.49058
-2.31266
-1.21847
-4.40438
-7.08396
-1.74237
-5.35776
-0.575304
3.64279
18.5601
0.246187
-5.88677
-3.76724
15.2782
3.35974
12.3844
-4.11875
6.22821
40.0269
5.05702
30.4417
-1.45911
-3.82045
11.6431
14.4198
2.45832
1.59925
1.92533
12.686
1.92141
16.5776
0.43072
1.28558
1.51693
7.25288
0.772265
10.2891
4.96487
17.9426
2.77787
-9.36383
-10.6849
9.64019
5.36577
4.8015
2.84086
1.84935
1.69179
0.889337
1.54661
1.44113
1.98506
9.41932
5.54833
1.57939
-9.96988
1.43218
-8.02455
1.41208
10.5996
35.0201
4.14897
7.67714
0.995568
34.3757
21.4006
6.03424
20.229
37.9125
7.37861
58.3092
39.6998
6.09963
14.0706
4.63497
-5.59134
2.91078
18.9356
2.88829
-11.5722
3.3276
9.76184
0.0710494
15.0477
3.11668
11.7455
1.24562
1.3827
7.64223
14.3708
22.5387
36.5903
26.0681
29.6015
1.18836
10.2779
38.5985
-0.294138
29.219
17.5018
0.724241
33.4554
10.9137
0.855484
10.941
-2.63679
-3.75865
32.9836
-0.989308
0.0641785
0.332558
-0.717335
7.05869
16.5524
21.9686
25.4427
23.2006
-2.65244
-4.91536
-3.91343
1.15769
-1.43522
28.4399
-3.07365
-1.91381
-3.62488
-3.84275
-4.0981
-1.60226
4.56607
-4.81848
15.9485
20.0049
10.8457
-7.34114
-10.2602
-4.81868
2.34586
16.3476
33.2326
2.29267
1.44585
43.4504
31.8576
20.0094
0.735685
-1.50399
37.927
18.1928
-4.90461
37.9928
-7.19826
14.7934
-10.6337
-6.01813
9.23744
0.389336
1.58729
-0.737787
-0.481347
32.5183
-3.64757
-3.85095
-3.66328
-5.02988
-1.18014
-1.23761
-3.59739
-1.55267
-3.54342
18.1462
0.492238
-0.404208
33.1188
4.35922
-7.72142
-6.80001
37.1523
42.2705
15.967
22.5821
19.1992
-1.73443
-3.84078
-3.80717
59.6894
-5.43494
13.1723
5.89577
18.0931
55.4036
23.5092
-1.83364
8.84896
12.8091
1.95509
-2.79783
-1.80308
-1.9164
2.06902
-3.70674
16.2212
-3.55912
38.8833
-3.08978
8.11394
19.3003
28.668
10.0254
2.21421
-5.30838
5.60716
1.65989
15.8178
13.4924
17.4986
10.4736
-0.659602
50.2992
3.28553
4.18404
7.82358
23.205
9.68558
0.936246
0.916315
0.559842
1.85528
-0.283241
29.846
-8.49798
23.8641
57.811
52.977
38.1297
17.1945
4.38909
62.0816
11.7557
-0.13171
3.75888
-0.594387
58.5662
19.7268
16.848
19.0393
-0.391068
9.5503
13.149
3.86167
4.44558
1.33618
2.64482
0.383896
1.56543
-0.938196
2.61037
-2.20878
-5.56359
-2.79395
-4.25184
-4.77265
-4.23413
-3.19631
-10.4262
36.7646
20.9043
-7.17487
1.31952
-0.480654
9.55931
2.49906
-3.58979
23.8388
35.0149
-8.75024
-2.2337
7.71335
11.0928
8.64231
-4.88073
1.96061
-6.40601
-2.99225
-2.29155
-0.127911
10.4791
10.5516
-1.76297
-4.43117
5.18908
17.7605
21.3988
48.1304
12.2801
15.8079
33.3033
30.4165
21.8697
-5.48181
24.8498
-2.03426
-1.31315
23.9356
25.2092
58.8579
44.7154
1.11798
4.28476
1.58299
-5.56096
9.91783
51.011
40.5605
10.945
19.5156
60.6286
44.8427
-2.73375
-8.18943
1.7039
-0.875394
-1.0998
15.9025
0.580966
7.37109
13.0404
3.20112
0.692763
5.02907
2.27497
2.1708
11.1158
-3.08671
1.3144
-5.03354
-4.74825
-3.0076
2.81533
-1.17561
4.09483
-0.726063
-4.42179
-1.60239
1.44322
2.48821
22.5108
9.39776
5.9594
2.83717
2.70854
2.7902
0.342031
0.585669
-0.349084
-0.227309
1.48405
2.70714
0.716445
-4.03876
3.10134
6.06329
10.546
11.9001
-2.00564
12.536
1.47223
16.9509
9.37816
1.89634
18.0995
23.9951
17.7321
-3.01554
-4.98438
-5.7616
-0.235738
-2.7405
13.4673
1.49164
0.318858
0.637636
-0.258107
0.862723
-0.674798
30.4849
3.95488
7.50511
31.8138
-2.11484
3.64951
15.3576
4.76649
1.72382
3.11579
7.86225
11.5035
20.4902
11.358
9.07512
19.6722
18.0404
10.5296
37.261
1.54315
12.7472
12.2396
-5.01783
49.2862
20.1962
4.40675
-4.45451
-0.371846
-4.72585
0.00934891
1.75311
18.3181
-5.71425
1.42807
8.37372
-2.18929
6.59194
6.76928
10.9219
2.32051
-3.35677
-6.05868
1.35779
-2.07655
-3.22941
-1.58141
-1.75584
-0.294965
1.84428
3.60418
0.0836343
0.519211
-0.888484
-0.739333
5.83788
11.5774
1.62965
-1.61457
14.8856
1.61504
0.616799
0.866732
1.06627
19.1314
2.48441
10.9052
1.81292
2.89135
-0.261856
0.297832
4.06508
1.53151
1.428
3.43825
1.28639
1.09469
-0.0773284
1.3807
0.161303
-0.0361198
0.518354
-0.181147
-0.69122
1.01056
-0.15366
6.01376
-0.250141
-0.195319
0.60185
0.235297
1.02343
-0.291409
-4.0386
-0.43167
-0.382081
-0.210637
0.361699
-2.43196
-1.37041
31.908
6.98037
-2.51981
2.01661
2.18494
2.22327
1.4255
0.0553089
-1.62683
-2.10948
0.0542778
-1.17123
-0.263339
3.68215
-2.17199
11.297
22.4107
5.49618
13.1709
-1.90743
-8.89876
1.44031
-0.142398
83.2216
-8.8649
-9.29861
23.0676
14.9986
44.2649
0.624239
-1.14957
6.49273
2.87134
24.8431
12.2215
7.36496
15.4578
24.1109
12.4072
24.8441
9.09067
35.0473
11.9542
-2.46473
-2.74084
21.9128
-0.497642
-5.48047
4.23136
35.6105
-12.0755
-6.98828
4.57305
9.78039
7.50559
5.49442
-0.454567
7.52854
0.226466
10.4674
10.9195
7.86568
-11.2223
0.202902
-3.08044
17.1269
-0.588142
43.2476
12.061
12.448
22.5106
27.6897
12.7224
12.696
7.114
9.41074
2.72606
22.1655
4.31249
16.1898
-3.32362
-4.98629
4.25884
-2.70256
12.3993
-9.29012
21.2537
-1.7288
27.1039
5.12239
35.9635
5.53041
-3.59869
-2.45683
1.51393
-4.56403
-5.09755
-2.16673
-2.28729
1.36924
35.7229
13.9503
2.65735
-9.76163
24.8719
27.6977
4.37733
-4.01733
1.81674
-4.20499
-2.70494
18.175
-4.11124
25.5205
31.0022
2.25789
-4.47098
6.06685
0.667185
1.03457
1.49968
0.503
-2.16194
17.5261
19.0147
21.6254
-3.86785
22.6229
0.650512
57.7808
50.291
30.0524
-2.10749
18.7101
0.871918
33.4424
-0.647645
26.3913
4.43975
1.19022
0.344005
0.441635
2.1342
3.58831
6.91669
1.70573
1.3828
1.38405
1.65909
0.980673
0.299062
15.563
35.7573
11.9118
10.3163
1.93651
6.38852
1.70307
1.68823
1.95381
3.03645
-13.2685
36.1425
15.7072
11.6474
10.3272
27.5268
1.99088
4.25384
28.1156
28.85
7.9011
2.39028
6.01659
2.40964
1.6167
1.16554
1.69513
1.08848
0.408115
-2.76676
2.93407
20.6359
0.293536
34.6972
2.07835
3.44313
2.37034
2.19709
6.58295
10.3754
-3.51112
-4.11447
-3.87373
-4.04917
-1.1245
6.81151
-0.702188
2.78753
4.13026
-4.79229
11.6568
-6.49789
-2.30831
4.22959
5.35271
18.1907
6.9571
39.6537
30.194
0.421271
4.76566
36.976
32.1294
4.79437
19.7294
27.2536
17.8983
49.3635
-1.08883
-6.83072
-7.71064
-3.09329
0.669188
2.23908
1.88302
-3.76251
12.2635
-5.47528
-4.64611
5.03039
-1.11846
13.9186
-2.35057
0.00166425
4.55076
28.7386
12.7156
6.72158
5.35458
12.1068
-0.584057
-2.8897
4.14439
4.72369
27.3412
20.4063
-8.6043
11.8721
0.967808
10.1604
-4.32879
-5.06827
-12.6766
-8.50072
5.28441